Protein in water
78490
    1DC     O5'    1   3.353   2.555   2.596 -0.0546  0.0762 -0.3338
    1DC     H5T    2   3.307   2.631   2.561 -0.0518 -0.0416 -0.5941
    1DC     C5'    3   3.486   2.592   2.624 -0.0477  0.2214 -0.5613
    1DC    H5'1    4   3.520   2.661   2.546 -0.3235  1.9803  0.7922
    1DC    H5'2    5   3.552   2.509   2.647  0.0319  0.6022  0.6910
    1DC     C4'    6   3.488   2.688   2.743 -0.1902 -0.0807 -0.3148
    1DC     H4'    7   3.594   2.714   2.744 -0.4260  1.0330 -1.6878
    1DC     O4'    8   3.407   2.798   2.711 -0.4122 -0.1144  0.1293
    1DC     C1'    9   3.340   2.838   2.829  0.0932  0.0443  0.3657
    1DC     H1'   10   3.413   2.890   2.891 -0.3138 -0.3499  1.1822
    1DC      N1   11   3.237   2.942   2.808  0.0424 -0.1897 -0.5887
    1DC      C6   12   3.103   2.917   2.817  0.0507 -0.2051 -0.5003
    1DC      H6   13   3.072   2.814   2.825  2.8335 -0.9842  3.9951
    1DC      C5   14   3.013   3.018   2.812 -0.0343 -0.2197  0.4353
    1DC      H5   15   2.907   3.003   2.818 -0.5524  2.1258 -1.3893
    1DC      C4   16   3.061   3.150   2.782 -0.1330 -0.2814 -0.0011
    1DC      N4   17   2.974   3.252   2.777  0.0253 -0.0896  0.9201
    1DC     H41   18   2.876   3.228   2.780 -0.2110  0.5791 -0.5384
    1DC     H42   19   3.009   3.346   2.786  2.1283 -0.6478 -0.5181
    1DC      N3   20   3.192   3.179   2.773 -0.0980 -0.3512  0.2844
    1DC      C2   21   3.275   3.072   2.779  0.3002 -0.0364  0.4110
    1DC      O2   22   3.395   3.098   2.769  0.1293  0.6331  0.0543
    1DC     C3'   23   3.437   2.630   2.875 -0.0614  0.3674 -0.0656
    1DC     H3'   24   3.421   2.522   2.871  1.1908 -0.0461  3.0999
    1DC     C2'   25   3.305   2.704   2.892 -0.1831  0.0735  0.2777
    1DC    H2'1   26   3.221   2.653   2.844  1.7618 -0.8900 -2.3587
    1DC    H2'2   27   3.279   2.721   2.996 -0.3732 -1.6965  0.5481
    1DC     O3'   28   3.523   2.673   2.979 -0.0446  0.0428  0.0551
    2DG       P   29   3.618   2.576   3.065 -0.1252  0.2345  0.3586
    2DG     O1P   30   3.679   2.470   2.982 -0.4199 -0.1955  0.6898
    2DG     O2P   31   3.545   2.532   3.186 -0.4003 -0.7363 -0.1520
    2DG     O5'   32   3.727   2.683   3.119  0.0533  0.0061  0.4525
    2DG     C5'   33   3.827   2.743   3.040  0.0836 -0.1795  0.3486
    2DG    H5'1   34   3.806   2.736   2.933 -1.5831 -2.9438  0.7477
    2DG    H5'2   35   3.922   2.693   3.060  0.0802 -0.3506 -0.0473
    2DG     C4'   36   3.832   2.889   3.083  0.3791  0.1184 -0.6690
    2DG     H4'   37   3.913   2.946   3.037  0.8173  1.3694  1.5281
    2DG     O4'   38   3.711   2.951   3.046  0.1326 -0.2680 -0.5158
    2DG     C1'   39   3.678   3.035   3.155 -0.1201 -0.3424 -0.5358
    2DG     H1'   40   3.738   3.126   3.152 -0.7253  0.1588  1.2852
    2DG      N9   41   3.536   3.074   3.145 -0.1676 -0.3221  0.1986
    2DG      C8   42   3.417   3.005   3.148 -0.2558 -0.1774 -0.0191
    2DG      H8   43   3.416   2.900   3.173  0.0815 -0.2552 -0.3189
    2DG      N7   44   3.313   3.079   3.120 -0.2077 -0.1220 -0.0514
    2DG      C5   45   3.364   3.208   3.107 -0.1886 -0.1137  0.1117
    2DG      C6   46   3.303   3.334   3.084  0.5141  0.2760  0.3668
    2DG      O6   47   3.185   3.363   3.064  0.4923  0.2761  0.4946
    2DG      N1   48   3.393   3.440   3.076  0.4574  0.3253  0.3840
    2DG      H1   49   3.356   3.532   3.060  0.6647  0.7922  2.3209
    2DG      C2   50   3.530   3.423   3.086  0.4430 -0.0670 -0.0161
    2DG      N2   51   3.602   3.535   3.070  0.0240  0.2743  0.4216
    2DG     H21   52   3.551   3.616   3.037 -1.3845 -0.2753  1.1895
    2DG     H22   53   3.702   3.527   3.055  0.1212  2.3629 -0.4052
    2DG      N3   54   3.589   3.304   3.100 -0.1819 -0.3799 -0.0111
    2DG      C4   55   3.500   3.204   3.120 -0.1920 -0.3552  0.0659
    2DG     C3'   56   3.839   2.908   3.234 -0.5814  0.3265 -0.6469
    2DG     H3'   57   3.851   2.810   3.279 -4.7993  0.0881  0.4079
    2DG     C2'   58   3.703   2.956   3.284 -0.3722  0.3321 -0.0700
    2DG    H2'1   59   3.639   2.868   3.283 -0.1215  0.1403 -1.6681
    2DG    H2'2   60   3.703   3.019   3.373 -0.9912 -0.8343  0.7861
    2DG     O3'   61   3.951   2.981   3.278 -0.2829 -0.3335 -0.2977
    3DA       P   62   3.995   2.992   3.433  0.0912 -0.2608 -0.4077
    3DA     O1P   63   4.142   3.007   3.442 -0.0015  0.3203  0.1884
    3DA     O2P   64   3.930   2.889   3.518 -0.0395  0.4173  0.3236
    3DA     O5'   65   3.928   3.134   3.469  0.0774 -0.2100 -0.6297
    3DA     C5'   66   3.984   3.254   3.422  0.2137  0.0957  0.2955
    3DA    H5'1   67   3.965   3.256   3.315 -0.4410  0.2261  0.4074
    3DA    H5'2   68   4.090   3.254   3.447 -0.0458 -2.4994  1.6291
    3DA     C4'   69   3.924   3.374   3.496  0.1291  0.1431  0.1517
    3DA     H4'   70   3.986   3.463   3.481  1.0350 -0.3474  0.8424
    3DA     O4'   71   3.794   3.403   3.452  0.0481 -0.1590  0.1929
    3DA     C1'   72   3.706   3.428   3.559 -0.0305  0.7376 -0.0790
    3DA     H1'   73   3.724   3.530   3.594  1.8402  0.6910 -0.7940
    3DA      N9   74   3.572   3.400   3.505  0.1406  0.2024 -0.2261
    3DA      C8   75   3.505   3.280   3.503  0.0768  0.2262  0.3089
    3DA      H8   76   3.562   3.189   3.517  0.1143 -0.0497 -1.3888
    3DA      N7   77   3.379   3.290   3.472  0.3428 -0.2135 -0.9680
    3DA      C5   78   3.362   3.425   3.446  0.0743 -0.1368 -0.4128
    3DA      C6   79   3.262   3.513   3.402 -0.3470 -0.2939  0.2197
    3DA      N6   80   3.140   3.475   3.361 -0.4216 -0.0141  0.1798
    3DA     H61   81   3.106   3.382   3.382  0.5396 -0.1013  1.4669
    3DA     H62   82   3.078   3.550   3.335 -2.9670 -1.9423  0.2317
    3DA      N1   83   3.283   3.640   3.368  0.1166 -0.5507 -0.4794
    3DA      C2   84   3.402   3.688   3.399 -0.1576 -0.1502 -0.0349
    3DA      H2   85   3.424   3.789   3.367 -0.4947  0.0876  0.4647
    3DA      N3   86   3.502   3.627   3.461 -0.0735  0.0342  0.0130
    3DA      C4   87   3.477   3.494   3.474 -0.0541  0.0059 -0.2346
    3DA     C3'   88   3.906   3.353   3.646  0.0299 -0.2216  0.0902
    3DA     H3'   89   3.960   3.264   3.679 -0.4810 -1.3210 -1.8909
    3DA     C2'   90   3.756   3.327   3.661 -0.1131  0.1857 -0.5783
    3DA    H2'1   91   3.740   3.222   3.640  0.1018  0.0559 -0.1122
    3DA    H2'2   92   3.714   3.348   3.760 -1.4735  1.5114 -1.3943
    3DA     O3'   93   3.960   3.465   3.713 -0.1835 -0.0902  0.0437
    4DC       P   94   3.976   3.469   3.873  0.1974  0.0624  0.0040
    4DC     O1P   95   4.105   3.520   3.923  0.5276 -0.8839  0.1188
    4DC     O2P   96   3.929   3.339   3.926 -0.1278  0.0086 -0.4039
    4DC     O5'   97   3.864   3.582   3.901  0.0442 -0.1901  0.4161
    4DC     C5'   98   3.888   3.719   3.879 -0.1169 -0.2046  0.1458
    4DC    H5'1   99   3.921   3.730   3.776 -1.1330 -0.4132 -0.2124
    4DC    H5'2  100   3.963   3.750   3.952  1.6873  0.4465 -1.8831
    4DC     C4'  101   3.760   3.800   3.901 -0.4606 -0.7590  0.2069
    4DC     H4'  102   3.786   3.903   3.877 -1.6173  0.1505  2.5920
    4DC     O4'  103   3.660   3.757   3.812 -0.3654 -0.8212  0.1296
    4DC     C1'  104   3.536   3.755   3.879 -0.2098  0.2923  0.4682
    4DC     H1'  105   3.491   3.855   3.886 -0.2309  0.3152  0.0639
    4DC      N1  106   3.434   3.665   3.821  0.2791  0.1770 -0.2339
    4DC      C6  107   3.450   3.530   3.823  0.1047  0.1457 -0.8287
    4DC      H6  108   3.540   3.490   3.866  0.0603  0.6955 -0.2120
    4DC      C5  109   3.352   3.444   3.787 -0.2627 -0.0235  0.4964
    4DC      H5  110   3.369   3.338   3.797  2.1923  0.2030 -0.5410
    4DC      C4  111   3.229   3.501   3.740 -0.2337 -0.3685 -0.0158
    4DC      N4  112   3.130   3.425   3.692 -0.4578 -0.0142 -0.1139
    4DC     H41  113   3.137   3.325   3.700  0.5059 -0.0420 -0.9777
    4DC     H42  114   3.044   3.462   3.653 -0.4381  2.4044  1.8788
    4DC      N3  115   3.218   3.634   3.734  0.0600 -0.3047  0.6933
    4DC      C2  116   3.318   3.720   3.768 -0.0910  0.0023  0.3737
    4DC      O2  117   3.298   3.840   3.751 -0.2307 -0.0463  0.1922
    4DC     C3'  118   3.703   3.789   4.042  0.0782  0.0363  0.4960
    4DC     H3'  119   3.767   3.732   4.109 -0.7063 -1.3140  0.1445
    4DC     C2'  120   3.564   3.727   4.026  0.0783  0.0687  0.3696
    4DC    H2'1  121   3.565   3.620   4.050  1.2571  0.5111  2.4914
    4DC    H2'2  122   3.489   3.778   4.085  0.7671  0.5327  0.8531
    4DC     O3'  123   3.694   3.921   4.091  0.2970  0.2732 -0.0894
    5DT       P  124   3.655   3.950   4.245 -0.0331 -0.1951 -0.0813
    5DT     O1P  125   3.730   4.066   4.298  0.2706 -0.5844  0.3456
    5DT     O2P  126   3.658   3.824   4.322 -0.2301 -0.1460  0.0057
    5DT     O5'  127   3.501   3.991   4.220  0.0315 -0.3010 -0.6737
    5DT     C5'  128   3.473   4.091   4.125 -0.0004  0.1220 -0.2198
    5DT    H5'1  129   3.497   4.048   4.028 -0.6723  0.4066 -0.5160
    5DT    H5'2  130   3.549   4.170   4.128  2.7293 -2.3296 -0.0677
    5DT     C4'  131   3.334   4.153   4.122 -0.2481 -0.4152 -0.0353
    5DT     H4'  132   3.355   4.245   4.067  1.1369 -0.5379  0.2585
    5DT     O4'  133   3.254   4.059   4.054 -0.1613  0.0051 -0.7311
    5DT     C1'  134   3.142   4.030   4.135  0.2162 -0.3691 -0.3376
    5DT     H1'  135   3.057   4.097   4.120  0.7666  0.2955 -0.5591
    5DT      N1  136   3.110   3.889   4.109 -0.2031 -0.2994 -0.2020
    5DT      C6  137   3.195   3.788   4.146 -0.0032  0.0663  0.3427
    5DT      H6  138   3.284   3.822   4.196  0.9720 -1.6823 -0.1342
    5DT      C5  139   3.174   3.660   4.111 -0.5977  0.3288 -0.2890
    5DT      C7  140   3.265   3.546   4.149  0.0872  0.5985 -1.1036
    5DT     H71  141   3.207   3.466   4.197 -0.2084  0.5547 -1.5333
    5DT     H72  142   3.317   3.513   4.059  0.3168  0.3723 -0.8928
    5DT     H73  143   3.338   3.578   4.224  0.4090  0.7844 -1.4930
    5DT      C4  144   3.050   3.619   4.050 -0.2013 -0.2349 -0.7203
    5DT      O4  145   3.011   3.510   4.008 -0.4921 -0.0912 -0.8293
    5DT      N3  146   2.960   3.722   4.031 -0.4234 -0.3155 -0.1284
    5DT      H3  147   2.866   3.692   4.009 -0.5165 -1.6098  1.8285
    5DT      C2  148   2.985   3.856   4.060 -0.1313 -0.3191 -0.3675
    5DT      O2  149   2.890   3.932   4.045 -0.2811 -0.4817 -0.2467
    5DT     C3'  150   3.267   4.189   4.254 -0.6672 -0.3380 -0.2672
    5DT     H3'  151   3.338   4.212   4.333  1.0982  3.0522 -2.5911
    5DT     C2'  152   3.196   4.056   4.275  0.2817 -0.8555 -0.2733
    5DT    H2'1  153   3.272   3.986   4.310 -0.4277 -1.4297  0.1728
    5DT    H2'2  154   3.118   4.080   4.348 -0.6347  1.3465 -1.8728
    5DT     O3'  155   3.183   4.301   4.235 -0.6123 -0.2154  0.1957
    6DC       P  156   3.116   4.381   4.357  0.3462  0.0030  0.5857
    6DC     O1P  157   3.111   4.528   4.336  0.0395 -0.0759  0.1079
    6DC     O2P  158   3.175   4.338   4.486  0.0387 -0.1645  0.6717
    6DC     O5'  159   2.965   4.328   4.348  0.3577 -0.0352  0.6104
    6DC     C5'  160   2.869   4.372   4.254  0.2978 -0.7966  0.3120
    6DC    H5'1  161   2.885   4.330   4.154 -0.1628 -1.4864  0.5198
    6DC    H5'2  162   2.856   4.480   4.249  1.2111 -0.7458 -2.2740
    6DC     C4'  163   2.741   4.311   4.310  0.3190 -0.3772  0.8153
    6DC     H4'  164   2.655   4.349   4.254  0.0808  1.7637  2.4810
    6DC     O4'  165   2.748   4.172   4.290  0.2064 -0.2026 -0.5264
    6DC     C1'  166   2.659   4.112   4.382 -0.0317  0.5404 -0.2594
    6DC     H1'  167   2.558   4.131   4.348 -1.4931 -2.4196  1.9802
    6DC      N1  168   2.700   3.971   4.364 -0.5608  0.3067  0.3432
    6DC      C6  169   2.826   3.927   4.392 -0.6470 -0.1332  0.0460
    6DC      H6  170   2.895   4.002   4.429  0.0615  0.5515 -2.5075
    6DC      C5  171   2.869   3.804   4.357 -0.1526  0.0787 -0.0904
    6DC      H5  172   2.970   3.780   4.389 -0.0526  1.5075  0.7734
    6DC      C4  173   2.770   3.718   4.299  0.2285 -0.3832 -0.0709
    6DC      N4  174   2.804   3.595   4.261  0.0292 -0.1452 -1.0344
    6DC     H41  175   2.889   3.551   4.292 -0.3876 -0.0646  0.2725
    6DC     H42  176   2.745   3.532   4.208  0.0124 -2.5663  1.6367
    6DC      N3  177   2.647   3.762   4.267  0.4794  0.4510  0.0721
    6DC      C2  178   2.607   3.885   4.309 -0.3592  0.0999  0.3266
    6DC      O2  179   2.493   3.927   4.297 -0.3796  0.0589  0.3782
    6DC     C3'  180   2.712   4.326   4.459  0.3743  0.1620  0.7747
    6DC     H3'  181   2.797   4.364   4.516  1.5479 -2.2227  0.7160
    6DC     C2'  182   2.693   4.184   4.512 -0.0749 -0.0401  0.0784
    6DC    H2'1  183   2.786   4.154   4.561 -0.4890 -3.2649 -0.8631
    6DC    H2'2  184   2.621   4.176   4.593  0.2511  0.3424  0.4126
    6DC     O3'  185   2.590   4.396   4.466  0.0523 -0.2765 -0.3252
    7DT       P  186   2.518   4.428   4.606  0.0452  0.0391 -0.3992
    7DT     O1P  187   2.476   4.570   4.599 -0.2096 -0.0162 -0.0676
    7DT     O2P  188   2.612   4.391   4.714 -0.5279 -0.3783 -0.0401
    7DT     O5'  189   2.389   4.332   4.616  0.0468  0.0720 -0.0297
    7DT     C5'  190   2.282   4.337   4.524  0.1224  0.1376 -0.1148
    7DT    H5'1  191   2.330   4.354   4.428  1.2337 -0.4715  0.3121
    7DT    H5'2  192   2.212   4.415   4.553  0.6099  0.0989  1.2391
    7DT     C4'  193   2.212   4.202   4.519  0.0368  0.1235  1.0073
    7DT     H4'  194   2.124   4.205   4.455  1.1283 -1.3974 -0.6819
    7DT     O4'  195   2.293   4.094   4.477  0.0245  0.3639  0.3535
    7DT     C1'  196   2.246   3.982   4.547  0.0693  0.1197 -0.0033
    7DT     H1'  197   2.160   3.942   4.493  0.0576  2.0963 -1.5372
    7DT      N1  198   2.350   3.877   4.559 -0.0447  0.0418  0.3324
    7DT      C6  199   2.473   3.894   4.616  0.1761 -0.2558 -0.0479
    7DT      H6  200   2.510   3.992   4.644 -1.1952  0.1806  0.3792
    7DT      C5  201   2.560   3.791   4.618  0.1362 -0.2920 -0.2210
    7DT      C7  202   2.697   3.823   4.672  0.0304 -0.1066 -0.0605
    7DT     H71  203   2.721   3.929   4.670 -1.0616  0.1972  1.2977
    7DT     H72  204   2.705   3.790   4.776 -3.2789 -2.3757 -0.3616
    7DT     H73  205   2.766   3.774   4.603 -1.3916  0.1981 -1.7582
    7DT      C4  206   2.536   3.663   4.556  0.6171 -0.3083 -0.3704
    7DT      O4  207   2.611   3.566   4.556  0.7980 -0.1725  0.4236
    7DT      N3  208   2.407   3.654   4.506  0.2144  0.2872  0.5367
    7DT      H3  209   2.374   3.560   4.488  2.0735 -0.4935  0.9870
    7DT      C2  210   2.310   3.753   4.513 -0.1108 -0.0324  0.5872
    7DT      O2  211   2.193   3.721   4.492 -0.0053  0.2276 -0.4682
    7DT     C3'  212   2.153   4.179   4.657 -0.0894 -0.3374  0.8795
    7DT     H3'  213   2.192   4.257   4.722 -0.7277 -0.0302  0.8995
    7DT     C2'  214   2.213   4.041   4.684  0.5549 -0.1866  0.2484
    7DT    H2'1  215   2.304   4.055   4.742  0.7966  0.9873 -0.3961
    7DT    H2'2  216   2.147   3.966   4.729  3.6015 -4.0631 -1.1586
    7DT     O3'  217   2.012   4.177   4.655 -0.0806  0.0468 -0.3209
    8DA       P  218   1.921   4.168   4.787 -0.0075 -0.5667 -0.3074
    8DA     O1P  219   1.789   4.229   4.760 -0.1416 -0.5181  0.4319
    8DA     O2P  220   2.004   4.214   4.901 -1.1444  0.8372 -0.0169
    8DA     O5'  221   1.906   4.009   4.800 -0.1265 -0.5587 -0.3525
    8DA     C5'  222   1.812   3.936   4.723 -0.6583  0.2301 -0.4696
    8DA    H5'1  223   1.830   3.936   4.616 -0.3280  2.0759 -0.4469
    8DA    H5'2  224   1.710   3.972   4.731 -0.3621  1.5106 -2.0969
    8DA     C4'  225   1.827   3.790   4.765 -0.0722  0.3574 -0.2247
    8DA     H4'  226   1.743   3.741   4.717  1.0267 -0.7878 -1.0463
    8DA     O4'  227   1.940   3.720   4.718 -0.1034  0.0125  0.1977
    8DA     C1'  228   1.983   3.623   4.811 -0.3417  0.2797  0.5873
    8DA     H1'  229   1.926   3.531   4.800  0.8776 -0.1730 -4.5324
    8DA      N9  230   2.126   3.589   4.818 -0.3615 -0.0741 -0.6076
    8DA      C8  231   2.230   3.667   4.859 -0.2588 -0.2656 -0.5004
    8DA      H8  232   2.230   3.769   4.895  0.5458 -0.3765 -0.1647
    8DA      N7  233   2.347   3.614   4.832  0.2377  0.2354  0.5915
    8DA      C5  234   2.310   3.484   4.801 -0.2477  0.5634 -0.2739
    8DA      C6  235   2.386   3.368   4.775 -0.6454  0.3253 -0.3793
    8DA      N6  236   2.520   3.364   4.776 -0.6385  0.4320  0.4895
    8DA     H61  237   2.569   3.452   4.768  0.3898 -0.1981 -0.4400
    8DA     H62  238   2.564   3.284   4.732  1.0370  1.2157  0.6684
    8DA      N1  239   2.326   3.250   4.755  0.0856 -0.0965 -0.1167
    8DA      C2  240   2.194   3.243   4.763  0.0492  0.6325 -0.0231
    8DA      H2  241   2.145   3.147   4.771 -1.9204  1.6406  0.8676
    8DA      N3  242   2.110   3.344   4.781 -0.5554  0.1282  0.0368
    8DA      C4  243   2.175   3.462   4.798 -0.1531 -0.0433 -0.2899
    8DA     C3'  244   1.820   3.763   4.915  0.1847 -0.0565 -0.2834
    8DA     H3'  245   1.822   3.857   4.971  1.9542 -0.2058 -0.0580
    8DA     C2'  246   1.950   3.689   4.945  0.2060  0.3517  0.6884
    8DA    H2'1  247   2.010   3.776   4.971 -0.3813  1.2382 -0.7682
    8DA    H2'2  248   1.928   3.614   5.020 -1.5721 -0.5078 -0.6163
    8DA     O3'  249   1.696   3.703   4.944 -0.0510  0.6672  0.2521
    9DC       P  250   1.652   3.670   5.095 -0.0699 -0.1488  0.0749
    9DC     O1P  251   1.504   3.659   5.094 -0.0539 -0.3462 -0.1641
    9DC     O2P  252   1.717   3.767   5.186  0.0413 -0.2124  0.0630
    9DC     O5'  253   1.718   3.526   5.124  0.1806 -0.0365  0.0580
    9DC     C5'  254   1.660   3.417   5.056  0.3217  0.0772 -0.2498
    9DC    H5'1  255   1.653   3.435   4.949  2.3143 -2.5479 -0.9049
    9DC    H5'2  256   1.557   3.399   5.088  0.2091 -2.9506 -1.9928
    9DC     C4'  257   1.735   3.287   5.082  0.3160  0.1624  0.2211
    9DC     H4'  258   1.691   3.209   5.019 -0.8247 -0.1880  1.4034
    9DC     O4'  259   1.870   3.314   5.053  0.2744 -0.3917 -0.5374
    9DC     C1'  260   1.947   3.253   5.154 -0.4077 -0.2479  0.0797
    9DC     H1'  261   1.940   3.145   5.143  2.7783 -0.3572 -2.3786
    9DC      N1  262   2.088   3.297   5.145 -0.4318 -0.1072  0.3893
    9DC      C6  263   2.130   3.415   5.199  0.2044 -0.0031 -0.3305
    9DC      H6  264   2.060   3.479   5.250  0.4672  0.7089 -0.8390
    9DC      C5  265   2.262   3.446   5.199  0.1823  0.0937 -0.4303
    9DC      H5  266   2.294   3.543   5.232 -0.8719  0.5682 -0.7469
    9DC      C4  267   2.348   3.361   5.123  0.3780 -0.1425  0.0527
    9DC      N4  268   2.475   3.397   5.097  0.2233  0.0754 -0.4131
    9DC     H41  269   2.511   3.476   5.149 -0.0042  1.0809 -1.7344
    9DC     H42  270   2.540   3.326   5.067 -1.7172 -2.6290  1.3182
    9DC      N3  271   2.316   3.237   5.083 -0.5380 -0.1233  0.7156
    9DC      C2  272   2.183   3.210   5.096 -0.7070  0.0567 -0.4585
    9DC      O2  273   2.144   3.095   5.077 -0.4908 -0.1225  0.1406
    9DC     C3'  274   1.728   3.246   5.229  0.0566  0.0640  0.1821
    9DC     H3'  275   1.647   3.304   5.275  1.2414  1.3821  0.6776
    9DC     C2'  276   1.865   3.291   5.277 -0.0282  0.3646  0.1497
    9DC    H2'1  277   1.876   3.399   5.286 -1.2990  0.7174 -1.8981
    9DC    H2'2  278   1.900   3.234   5.364  0.3833 -0.4268 -0.5101
    9DC     O3'  279   1.707   3.107   5.233  0.0372  0.0703  0.2923
   10DG       P  280   1.692   3.037   5.377  0.2947 -0.3609  0.1128
   10DG     O1P  281   1.594   2.927   5.368 -0.0648 -0.0540  0.2340
   10DG     O2P  282   1.670   3.147   5.474  0.1156 -0.7197  0.4816
   10DG     O5'  283   1.840   2.977   5.399  0.4565 -0.2103 -0.5433
   10DG     C5'  284   1.880   2.857   5.336  0.8999 -0.1747 -0.3273
   10DG    H5'1  285   1.900   2.873   5.230  0.6858 -0.9863 -0.4926
   10DG    H5'2  286   1.794   2.791   5.342 -1.7805  2.9919 -1.3991
   10DG     C4'  287   1.999   2.812   5.421  0.4087  0.0635  0.5023
   10DG     H4'  288   2.027   2.711   5.392  1.9859  0.5688  0.0971
   10DG     O4'  289   2.113   2.887   5.383  0.3135 -0.0889 -0.0917
   10DG     C1'  290   2.198   2.894   5.495 -0.1491  0.1957  0.2413
   10DG     H1'  291   2.258   2.805   5.515  1.5011  0.8199 -1.6508
   10DG      N9  292   2.298   2.999   5.473  0.2097 -0.2238 -0.1416
   10DG      C8  293   2.275   3.134   5.477 -0.1004 -0.2846  0.1118
   10DG      H8  294   2.184   3.169   5.526  0.0805 -1.2030  1.1316
   10DG      N7  295   2.372   3.210   5.435 -0.1885 -0.0889  0.2566
   10DG      C5  296   2.468   3.116   5.398 -0.2480 -0.0482 -0.0076
   10DG      C6  297   2.599   3.128   5.345 -0.1649  0.4539  0.3073
   10DG      O6  298   2.658   3.229   5.305 -0.0705  0.2642 -0.0314
   10DG      N1  299   2.672   3.010   5.336 -0.2766  0.3952  0.1672
   10DG      H1  300   2.772   3.009   5.325  0.0437 -1.5671  2.3273
   10DG      C2  301   2.615   2.886   5.357  0.2879  0.1012 -0.0212
   10DG      N2  302   2.704   2.786   5.366 -0.0028 -0.1525  0.0458
   10DG     H21  303   2.803   2.787   5.348  0.4543  0.3901  2.3529
   10DG     H22  304   2.672   2.696   5.398 -0.1627 -0.4096 -0.8200
   10DG      N3  305   2.487   2.871   5.392  0.1231 -0.2231 -0.7498
   10DG      C4  306   2.422   2.988   5.415  0.4131 -0.2541  0.2934
   10DG     C3'  307   1.988   2.814   5.573 -0.5254  0.2793  0.4342
   10DG     H3'  308   1.893   2.852   5.612 -0.5073 -1.3524  2.1719
   10DG     C2'  309   2.095   2.917   5.606 -0.3363  0.2020  0.0682
   10DG    H2'1  310   2.057   3.018   5.597 -0.6198  0.0253 -0.8019
   10DG    H2'2  311   2.150   2.900   5.699 -1.1935 -3.4448  0.0439
   10DG     O3'  312   2.006   2.684   5.624  0.2169  0.2526  0.1142
   11DG       P  313   2.014   2.646   5.780  0.1473 -0.3881 -0.0355
   11DG     O1P  314   1.987   2.500   5.791  0.5441 -0.4684 -0.1110
   11DG     O2P  315   1.937   2.739   5.864 -0.1395 -0.4002 -0.2835
   11DG     O5'  316   2.170   2.668   5.814  0.2319 -0.9238 -0.0616
   11DG     C5'  317   2.265   2.593   5.743  0.5668 -0.4462 -0.1223
   11DG    H5'1  318   2.257   2.595   5.635  0.0411  1.1659 -0.0806
   11DG    H5'2  319   2.258   2.495   5.791 -0.3951 -0.8662 -1.0869
   11DG     C4'  320   2.406   2.650   5.758  0.4212 -0.0553 -0.2435
   11DG     H4'  321   2.467   2.578   5.703  1.5950  0.3946  0.4411
   11DG     O4'  322   2.419   2.782   5.710  0.0800  0.1502  0.2245
   11DG     C1'  323   2.552   2.816   5.743  0.0892  0.4224 -0.0858
   11DG     H1'  324   2.623   2.771   5.674  1.1852 -0.0115  1.2726
   11DG      N9  325   2.585   2.960   5.741 -0.2033  0.4972  0.3485
   11DG      C8  326   2.505   3.071   5.751 -0.1643  0.5792 -0.2284
   11DG      H8  327   2.400   3.062   5.774  0.1926 -0.7935  1.0436
   11DG      N7  328   2.565   3.184   5.728  0.8246  0.1102  0.0190
   11DG      C5  329   2.692   3.141   5.690  0.4556 -0.4518 -0.5876
   11DG      C6  330   2.800   3.218   5.639  0.3450  0.2926  0.2793
   11DG      O6  331   2.808   3.339   5.621  0.6048  0.1767 -0.4160
   11DG      N1  332   2.915   3.145   5.613 -0.2420 -0.4372 -0.3318
   11DG      H1  333   3.003   3.192   5.597 -0.7583 -0.1161 -2.4259
   11DG      C2  334   2.923   3.009   5.636 -0.2649 -0.5000 -0.6973
   11DG      N2  335   3.040   2.945   5.622  0.2045 -0.0331  0.9170
   11DG     H21  336   3.117   3.002   5.591  1.4069 -1.1036  1.8124
   11DG     H22  337   3.058   2.857   5.668 -0.5273  0.7765  2.8514
   11DG      N3  338   2.821   2.934   5.681 -0.0133 -0.5043 -0.1321
   11DG      C4  339   2.709   3.006   5.706  0.0443 -0.4438 -0.0445
   11DG     C3'  340   2.461   2.650   5.900 -0.2586  0.0024  0.0241
   11DG     H3'  341   2.387   2.694   5.966  0.4568 -0.3591  1.0890
   11DG     C2'  342   2.571   2.754   5.881  0.2626 -0.6454 -0.5753
   11DG    H2'1  343   2.548   2.830   5.957  1.2627 -1.3212  0.4471
   11DG    H2'2  344   2.670   2.709   5.888  0.4391 -0.3258 -0.9792
   11DG     O3'  345   2.525   2.530   5.935 -0.5650 -0.0833  0.2887
   12DA       P  346   2.586   2.495   6.081 -0.1456  0.0317  0.1426
   12DA     O1P  347   2.552   2.352   6.096  0.1848 -0.0805 -0.1512
   12DA     O2P  348   2.526   2.589   6.179  0.0220  0.0750  0.2046
   12DA     O5'  349   2.742   2.530   6.063 -0.1479 -0.2084 -0.3882
   12DA     C5'  350   2.831   2.463   5.977  0.1616 -0.1467 -0.1205
   12DA    H5'1  351   2.796   2.483   5.875 -1.9135 -1.2925  0.3061
   12DA    H5'2  352   2.823   2.356   5.992  0.1058  0.1823  2.6074
   12DA     C4'  353   2.974   2.511   5.998  0.1852 -0.2148 -0.1221
   12DA     H4'  354   3.049   2.452   5.945  0.3783  0.2144 -0.3418
   12DA     O4'  355   2.979   2.641   5.941 -0.3136  0.0711  0.4746
   12DA     C1'  356   3.032   2.731   6.036 -0.0411  0.1012  0.2931
   12DA     H1'  357   3.140   2.746   6.031  0.1261 -0.9486  0.5699
   12DA      N9  358   2.960   2.859   6.030  0.0862  0.1574 -0.1156
   12DA      C8  359   2.834   2.894   6.072 -0.1647 -0.5752 -0.2409
   12DA      H8  360   2.762   2.822   6.109 -0.2837 -0.1775  0.3192
   12DA      N7  361   2.815   3.023   6.062  0.1061 -0.5560 -0.5301
   12DA      C5  362   2.930   3.075   6.003  0.2113  0.3010  0.4014
   12DA      C6  363   2.970   3.194   5.942 -0.3080 -0.0623 -0.6684
   12DA      N6  364   2.885   3.297   5.932  0.3434  0.5730  0.2021
   12DA     H61  365   2.806   3.298   5.995  0.0920 -1.1287 -0.0436
   12DA     H62  366   2.916   3.385   5.893 -0.9218  0.7242 -0.5201
   12DA      N1  367   3.089   3.208   5.882  0.0792 -0.2210  0.0483
   12DA      C2  368   3.165   3.100   5.873  0.3499 -0.0683  0.4834
   12DA      H2  369   3.261   3.110   5.825 -0.5716 -0.1276 -1.4779
   12DA      N3  370   3.140   2.980   5.922 -0.3275 -0.4394 -0.7311
   12DA      C4  371   3.021   2.974   5.987  0.1105  0.2470  0.1566
   12DA     C3'  372   3.018   2.520   6.143 -0.3820 -0.2472  0.0543
   12DA     H3'  373   2.946   2.471   6.209  0.4088 -1.0007  0.3793
   12DA     C2'  374   3.017   2.669   6.175  0.6084 -0.2655  0.2047
   12DA    H2'1  375   2.923   2.698   6.221 -0.0330 -0.1231 -1.1517
   12DA    H2'2  376   3.102   2.700   6.236  0.0606 -0.5065  1.0973
   12DA     O3'  377   3.149   2.468   6.156 -0.0973  0.3682 -0.3277
   13DA       P  378   3.242   2.473   6.287 -0.0738 -0.1574 -0.3235
   13DA     O1P  379   3.321   2.348   6.298 -0.0689 -0.1455 -0.2244
   13DA     O2P  380   3.156   2.506   6.402 -0.0649 -0.5809 -0.1927
   13DA     O5'  381   3.346   2.594   6.269 -0.5000  0.2872  0.1922
   13DA     C5'  382   3.477   2.581   6.218 -0.2923  0.0342  0.7822
   13DA    H5'1  383   3.483   2.565   6.111  2.3680 -1.2978  1.0378
   13DA    H5'2  384   3.525   2.495   6.266 -0.7251 -0.5761  0.1394
   13DA     C4'  385   3.551   2.710   6.254 -0.1667  0.0253  0.5527
   13DA     H4'  386   3.644   2.710   6.197  0.1191 -1.1419  0.9959
   13DA     O4'  387   3.487   2.823   6.198 -0.7844 -0.7378 -0.3182
   13DA     C1'  388   3.461   2.910   6.306 -0.0329 -0.5861 -0.2547
   13DA     H1'  389   3.536   2.988   6.294 -1.4855  0.9651  0.3245
   13DA      N9  390   3.330   2.977   6.294  0.2042 -0.0909 -0.0607
   13DA      C8  391   3.208   2.938   6.341  0.2542  0.5641  0.6393
   13DA      H8  392   3.193   2.840   6.385  0.3462  0.4877  0.5020
   13DA      N7  393   3.115   3.029   6.333 -0.4032 -0.1676 -0.1745
   13DA      C5  394   3.181   3.136   6.275 -0.0708  0.1980  0.8601
   13DA      C6  395   3.144   3.266   6.236  0.1582  0.0608  0.1812
   13DA      N6  396   3.025   3.324   6.255 -0.2190 -0.6216 -0.0295
   13DA     H61  397   2.975   3.289   6.335  0.0524 -1.2794 -0.1485
   13DA     H62  398   3.003   3.412   6.209 -1.7105 -1.9029 -1.8991
   13DA      N1  399   3.224   3.346   6.165  0.1943  0.0661  0.2282
   13DA      C2  400   3.348   3.301   6.149  0.1681  0.0539  0.0600
   13DA      H2  401   3.416   3.368   6.097  0.2462 -0.0652  0.0099
   13DA      N3  402   3.402   3.188   6.190 -0.2129  0.0344  0.5143
   13DA      C4  403   3.311   3.104   6.245 -0.3566 -0.1565 -0.0111
   13DA     C3'  404   3.574   2.727   6.403 -0.3702  0.2044  0.5643
   13DA     H3'  405   3.570   2.632   6.457  0.8972  0.9121  2.0093
   13DA     C2'  406   3.469   2.832   6.437 -0.6878  0.0217  0.1511
   13DA    H2'1  407   3.379   2.777   6.465  0.2412 -0.5041  2.3534
   13DA    H2'2  408   3.493   2.901   6.518 -1.7013 -0.8468  1.2208
   13DA     O3'  409   3.697   2.793   6.424 -0.0593 -0.2907  0.2941
   14DG       P  410   3.753   2.823   6.571  0.0577  0.4045  0.1105
   14DG     O1P  411   3.896   2.796   6.544  0.1078 -0.1527  0.8715
   14DG     O2P  412   3.682   2.738   6.670  0.2171 -0.3789 -0.4430
   14DG     O5'  413   3.730   2.975   6.620  0.2836  0.4653  0.0299
   14DG     C5'  414   3.810   3.082   6.575  0.0465  0.4037 -0.5492
   14DG    H5'1  415   3.841   3.074   6.471 -0.0814  1.4377 -0.6786
   14DG    H5'2  416   3.897   3.088   6.639  0.8932 -0.1495 -1.6166
   14DG     C4'  417   3.737   3.216   6.581 -0.6648  0.0002 -0.0008
   14DG     H4'  418   3.805   3.288   6.534  1.4793 -2.6187 -1.1828
   14DG     O4'  419   3.611   3.218   6.518 -0.4777 -0.3230 -0.3876
   14DG     C1'  420   3.545   3.335   6.560  0.2498 -0.1033  0.1607
   14DG     H1'  421   3.582   3.431   6.523  0.7061 -0.0818  0.6545
   14DG      N9  422   3.399   3.332   6.542  0.1796  0.0572  0.6940
   14DG      C8  423   3.308   3.236   6.578  0.2783 -0.0720  0.5934
   14DG      H8  424   3.334   3.139   6.618 -0.5526  0.2826  2.0568
   14DG      N7  425   3.182   3.264   6.561  0.3916 -0.0505 -0.2492
   14DG      C5  426   3.189   3.399   6.528 -0.0207 -0.0620 -0.3847
   14DG      C6  427   3.090   3.496   6.495 -0.1079 -0.2510 -0.6856
   14DG      O6  428   2.969   3.476   6.492 -0.1791  0.1491 -0.5736
   14DG      N1  429   3.139   3.622   6.461  0.1161 -0.1855 -0.1298
   14DG      H1  430   3.068   3.692   6.453 -0.5340 -0.8387 -0.1537
   14DG      C2  431   3.274   3.653   6.462  0.1786 -0.4500 -0.1289
   14DG      N2  432   3.305   3.783   6.455 -0.0662 -0.4265 -0.8679
   14DG     H21  433   3.233   3.853   6.466  2.1969  1.7773  0.9905
   14DG     H22  434   3.400   3.817   6.458 -0.3284  0.5223  4.1119
   14DG      N3  435   3.369   3.561   6.482  0.2773 -0.3509 -0.1456
   14DG      C4  436   3.319   3.439   6.512  0.0626 -0.3051 -0.3174
   14DG     C3'  437   3.709   3.265   6.723 -0.0451 -0.2074  0.1957
   14DG     H3'  438   3.682   3.171   6.772  1.6138 -0.2704  1.0778
   14DG     C2'  439   3.584   3.350   6.707  0.0305 -0.0910  0.2171
   14DG    H2'1  440   3.499   3.319   6.769 -1.5199 -1.0963 -2.2571
   14DG    H2'2  441   3.613   3.452   6.731  0.2796  0.0749 -0.7590
   14DG     O3'  442   3.817   3.337   6.779  0.2274 -0.5236  0.0812
   15DG       P  443   3.818   3.377   6.935 -0.0852 -0.1091 -0.0220
   15DG     O1P  444   3.957   3.368   6.986 -0.0516  0.3752 -0.0179
   15DG     O2P  445   3.717   3.296   7.006  0.3178 -0.2346  0.4129
   15DG     O5'  446   3.778   3.533   6.931 -0.0582 -0.1159 -0.8173
   15DG     C5'  447   3.849   3.629   6.856  0.0258  0.2390 -0.2888
   15DG    H5'1  448   3.822   3.612   6.752  1.1217  2.7050 -1.0502
   15DG    H5'2  449   3.954   3.603   6.854  0.1048  0.4926  0.2627
   15DG     C4'  450   3.826   3.778   6.882  0.0519  0.2143 -0.1216
   15DG     H4'  451   3.901   3.835   6.828 -1.1479  1.5945 -0.3810
   15DG     O4'  452   3.702   3.814   6.825  0.0459  0.1132 -0.1720
   15DG     C1'  453   3.606   3.828   6.927  0.4857 -0.2179  0.2899
   15DG     H1'  454   3.571   3.930   6.942 -0.1125 -0.7228  2.7710
   15DG      N9  455   3.489   3.749   6.886  0.1799  0.2421  0.2730
   15DG      C8  456   3.471   3.614   6.898  0.2431  0.1450 -0.6803
   15DG      H8  457   3.555   3.554   6.932  0.5506  1.1122  0.3460
   15DG      N7  458   3.353   3.569   6.869  0.0996 -0.1221  0.2796
   15DG      C5  459   3.283   3.681   6.827 -0.0373 -0.1780  0.3557
   15DG      C6  460   3.147   3.702   6.791  0.1147 -0.0189 -0.1460
   15DG      O6  461   3.060   3.617   6.774 -0.2233  0.2381  0.2588
   15DG      N1  462   3.115   3.833   6.758  0.7128  0.0027 -0.6401
   15DG      H1  463   3.018   3.860   6.751  0.5223 -0.0883  1.2473
   15DG      C2  464   3.200   3.937   6.787  0.1719  0.2275  0.1742
   15DG      N2  465   3.144   4.059   6.779  0.0933  0.1854  0.0851
   15DG     H21  466   3.045   4.069   6.763  0.1188  0.5826  0.1802
   15DG     H22  467   3.198   4.144   6.782 -1.0773  0.9261  2.5163
   15DG      N3  468   3.329   3.918   6.820  0.1126 -0.2170  0.1528
   15DG      C4  469   3.365   3.790   6.842  0.2547 -0.2809 -0.4313
   15DG     C3'  470   3.822   3.815   7.030 -0.6940  0.2077 -0.1352
   15DG     H3'  471   3.886   3.744   7.082 -1.6956 -0.9507 -0.4316
   15DG     C2'  472   3.674   3.787   7.058 -0.4062 -0.6179  0.6405
   15DG    H2'1  473   3.667   3.679   7.060  1.1669 -0.9098 -2.3846
   15DG    H2'2  474   3.642   3.834   7.151 -0.9550 -2.4935  1.4429
   15DG     O3'  475   3.867   3.945   7.062 -0.5621  0.2580 -0.5175
   16DG       P  476   3.825   4.028   7.193 -0.0127  0.1219 -0.2522
   16DG     O1P  477   3.918   4.143   7.204 -0.2190  0.3360 -0.7163
   16DG     O2P  478   3.821   3.939   7.311  0.1857  0.0869 -0.2713
   16DG     O5'  479   3.680   4.087   7.155  0.1006  0.2221 -0.5275
   16DG     C5'  480   3.659   4.215   7.101  0.4924  0.5014 -0.0263
   16DG    H5'1  481   3.662   4.224   6.992 -4.0355 -1.7704 -0.5922
   16DG    H5'2  482   3.729   4.284   7.147  2.1148 -2.0914  1.6210
   16DG     C4'  483   3.518   4.270   7.123  0.2121 -0.0144 -0.4824
   16DG     H4'  484   3.509   4.366   7.071 -1.9385  0.2294  0.2208
   16DG     O4'  485   3.415   4.187   7.075  0.0589 -0.2195  0.1825
   16DG     C1'  486   3.327   4.156   7.180 -0.3215 -0.1437 -0.1102
   16DG     H1'  487   3.248   4.231   7.182  0.1108  0.3062  0.8267
   16DG      N9  488   3.263   4.024   7.166 -0.1144 -0.2813  0.1998
   16DG      C8  489   3.326   3.903   7.177  0.4014  0.0017  0.3718
   16DG      H8  490   3.432   3.897   7.200  0.0892  0.5393  2.1689
   16DG      N7  491   3.250   3.800   7.151 -0.0175  0.2585  0.5599
   16DG      C5  492   3.125   3.857   7.129  0.0260 -0.1655 -0.9316
   16DG      C6  493   3.000   3.793   7.107 -0.2049 -0.1165  0.1702
   16DG      O6  494   2.975   3.672   7.103 -0.1394 -0.1098 -0.5151
   16DG      N1  495   2.895   3.883   7.104  0.0020  0.1320  0.3040
   16DG      H1  496   2.807   3.847   7.069  0.0632 -2.2265  2.3781
   16DG      C2  497   2.911   4.018   7.127  0.2401  0.2087 -0.2923
   16DG      N2  498   2.800   4.094   7.131 -0.0191 -0.2122  0.6577
   16DG     H21  499   2.712   4.045   7.129  0.0502 -0.3182 -0.3756
   16DG     H22  500   2.797   4.195   7.135 -2.2076 -0.1959 -0.0670
   16DG      N3  501   3.029   4.081   7.140  0.2184  0.0201  0.8499
   16DG      C4  502   3.132   3.993   7.139  0.0516 -0.1769 -0.7686
   16DG     C3'  503   3.486   4.290   7.271  0.1631  0.0663 -0.5036
   16DG     H3'  504   3.578   4.297   7.329 -2.3952 -0.9348  4.1710
   16DG     C2'  505   3.403   4.168   7.312 -0.1042  0.3225 -0.2766
   16DG    H2'1  506   3.471   4.085   7.330 -1.3483 -0.2483  2.1983
   16DG    H2'2  507   3.335   4.175   7.396 -0.9227 -1.2989 -0.7751
   16DG     O3'  508   3.405   4.405   7.279 -0.4463 -0.3829 -0.1788
   17DC       P  509   3.374   4.486   7.415 -0.2352 -0.2787 -0.1931
   17DC     O1P  510   3.400   4.631   7.400  0.0244 -0.3082 -0.0314
   17DC     O2P  511   3.434   4.410   7.527  0.9193  0.5492 -0.2393
   17DC     O5'  512   3.215   4.472   7.439 -0.2335  0.4158  0.2474
   17DC     C5'  513   3.126   4.553   7.364 -0.0281  0.3842 -0.0314
   17DC    H5'1  514   3.148   4.542   7.258 -0.8100  1.2067 -0.2802
   17DC    H5'2  515   3.141   4.658   7.388 -0.4940  0.1094  1.5508
   17DC     C4'  516   2.979   4.527   7.392  0.1435 -0.4540  0.1307
   17DC     H4'  517   2.921   4.602   7.338  1.0337  0.1415 -0.0202
   17DC     O4'  518   2.947   4.393   7.362  0.0127 -0.3858 -0.0350
   17DC     C1'  519   2.883   4.333   7.472  0.0114  0.0425  0.1996
   17DC     H1'  520   2.775   4.348   7.465  0.1424  1.8391  1.3394
   17DC      N1  521   2.915   4.189   7.470 -0.1554  0.0015  0.3806
   17DC      C6  522   3.047   4.155   7.474 -0.2544 -0.4434 -0.1297
   17DC      H6  523   3.123   4.231   7.484  0.4015 -1.1865  0.7602
   17DC      C5  524   3.085   4.025   7.472  0.4678 -0.2346 -0.4875
   17DC      H5  525   3.189   3.997   7.479  0.8200  1.1856  0.4304
   17DC      C4  526   2.979   3.930   7.459  0.0596  0.1480  0.0075
   17DC      N4  527   2.997   3.805   7.415 -0.0095  0.2241 -0.2353
   17DC     H41  528   3.093   3.776   7.408  0.5385  2.2348 -2.4161
   17DC     H42  529   2.918   3.750   7.384  0.9741 -1.2960 -0.1551
   17DC      N3  530   2.850   3.964   7.449 -0.0302 -0.0747  0.3786
   17DC      C2  531   2.815   4.094   7.464 -0.0952 -0.0315 -0.1358
   17DC      O2  532   2.698   4.133   7.467 -0.1792 -0.3137  0.2479
   17DC     C3'  533   2.945   4.559   7.537  0.1839  0.1602  0.0071
   17DC     H3'  534   3.030   4.610   7.581  0.1248  0.7813 -0.5921
   17DC     C2'  535   2.923   4.418   7.592 -0.6254  0.3538  0.1981
   17DC    H2'1  536   3.017   4.377   7.631  0.5556 -0.9968 -3.5933
   17DC    H2'2  537   2.850   4.423   7.673  1.2415  3.5444  1.9276
   17DC     O3'  538   2.826   4.634   7.529 -0.2981 -0.5958 -0.0153
   18DA       P  539   2.770   4.710   7.660  0.2542  0.1498 -0.2046
   18DA     O1P  540   2.683   4.821   7.616  0.2439  0.1364 -0.2178
   18DA     O2P  541   2.887   4.739   7.744  0.1992  0.1864 -0.1413
   18DA     O5'  542   2.687   4.609   7.754  0.1974  0.3361 -0.0525
   18DA     C5'  543   2.569   4.541   7.717  0.2837 -0.2014  0.6397
   18DA    H5'1  544   2.582   4.521   7.610 -2.2744 -0.7448  0.3588
   18DA    H5'2  545   2.476   4.598   7.711 -0.9703 -2.2148  0.1283
   18DA     C4'  546   2.546   4.413   7.796 -0.6202 -0.3054  0.2279
   18DA     H4'  547   2.443   4.394   7.766  0.1128 -1.4039 -1.7153
   18DA     O4'  548   2.619   4.304   7.743 -0.2578 -0.3221  0.7507
   18DA     C1'  549   2.617   4.203   7.842 -0.5792 -0.9284  0.1343
   18DA     H1'  550   2.520   4.154   7.837 -0.8414 -0.3899 -0.1601
   18DA      N9  551   2.727   4.105   7.832  0.0014 -0.3048  0.3004
   18DA      C8  552   2.863   4.121   7.829 -0.0255 -0.1235 -0.0659
   18DA      H8  553   2.909   4.219   7.834 -0.0970 -0.0368 -0.9414
   18DA      N7  554   2.928   4.011   7.805  0.3153  0.1230 -0.2851
   18DA      C5  555   2.827   3.916   7.793  0.3741 -0.0224  0.3325
   18DA      C6  556   2.821   3.779   7.764  0.1045 -0.0675  0.5861
   18DA      N6  557   2.920   3.695   7.730  0.4070  0.6578 -0.3862
   18DA     H61  558   3.014   3.730   7.724  0.6690  0.0304 -0.0658
   18DA     H62  559   2.892   3.599   7.718  3.0411 -0.3073  0.4473
   18DA      N1  560   2.706   3.711   7.776 -0.4596  0.7391 -0.1663
   18DA      C2  561   2.594   3.772   7.811 -0.7107  0.0252  0.2913
   18DA      H2  562   2.502   3.718   7.824 -0.3891 -0.3618  1.0862
   18DA      N3  563   2.589   3.902   7.839 -0.2453  0.2034 -0.4252
   18DA      C4  564   2.705   3.970   7.828  0.0577 -0.2980 -0.3334
   18DA     C3'  565   2.558   4.417   7.949 -0.0811  0.1822  0.1771
   18DA     H3'  566   2.637   4.485   7.979 -1.0254  1.2060  0.4290
   18DA     C2'  567   2.625   4.282   7.972  0.3895  0.2702 -0.6251
   18DA    H2'1  568   2.729   4.289   8.005  0.5957 -0.5380 -1.0905
   18DA    H2'2  569   2.565   4.226   8.044  2.4658 -0.0660  0.9342
   18DA     O3'  570   2.430   4.444   8.003 -0.0708  0.4342  0.0798
   19DT       P  571   2.415   4.463   8.162 -0.0993 -0.4686  0.1946
   19DT     O1P  572   2.309   4.565   8.182  0.5028  0.2380 -0.1746
   19DT     O2P  573   2.543   4.489   8.232 -0.2238  0.4306  0.0989
   19DT     O5'  574   2.368   4.318   8.212 -0.0194 -0.4878  0.2149
   19DT     C5'  575   2.263   4.248   8.148  0.1958 -0.3560 -0.2877
   19DT    H5'1  576   2.275   4.253   8.040 -1.3291  1.7241 -0.4249
   19DT    H5'2  577   2.165   4.289   8.173  0.2852  0.3821 -1.0912
   19DT     C4'  578   2.258   4.098   8.178  0.1894 -0.2480  0.2558
   19DT     H4'  579   2.177   4.066   8.112  1.7055 -1.7252 -0.9544
   19DT     O4'  580   2.378   4.037   8.138  0.4379  0.3520  0.0797
   19DT     C1'  581   2.390   3.913   8.204 -0.5658  0.3211  0.2121
   19DT     H1'  582   2.335   3.835   8.151  0.2513  0.0437 -0.2488
   19DT      N1  583   2.531   3.873   8.194 -0.5052  0.4460  0.5514
   19DT      C6  584   2.633   3.959   8.225  0.1519 -0.0656 -0.1366
   19DT      H6  585   2.601   4.053   8.267 -3.6371  0.5749 -3.7384
   19DT      C5  586   2.760   3.932   8.189  0.1435 -0.4699  0.1211
   19DT      C7  587   2.867   4.038   8.199 -0.2002 -0.0767 -0.2955
   19DT     H71  588   2.896   4.081   8.103  0.6591  0.3219  0.1342
   19DT     H72  589   2.828   4.113   8.268 -0.8846 -0.4051 -0.3147
   19DT     H73  590   2.952   3.997   8.253  0.2374  1.2509  0.0603
   19DT      C4  591   2.795   3.806   8.127 -0.4050 -0.3612 -0.4286
   19DT      O4  592   2.902   3.769   8.079 -0.0470 -0.0207  0.0893
   19DT      N3  593   2.692   3.714   8.131 -0.3502 -0.3987  0.5679
   19DT      H3  594   2.716   3.621   8.099  1.4310  0.6464 -1.3914
   19DT      C2  595   2.559   3.741   8.162 -0.2203  0.5626  0.3155
   19DT      O2  596   2.483   3.646   8.180  0.1009  0.3325  0.4747
   19DT     C3'  597   2.234   4.059   8.323 -0.4887 -0.1792  0.1660
   19DT     H3'  598   2.240   4.137   8.399 -0.1564 -0.4110  0.3771
   19DT     C2'  599   2.337   3.949   8.342 -0.1798  0.1479  0.4054
   19DT    H2'1  600   2.414   3.967   8.417  2.1597 -0.9012 -1.5962
   19DT    H2'2  601   2.291   3.854   8.370 -1.7270 -0.4587 -3.5706
   19DT     O3'  602   2.110   3.992   8.319 -0.2134 -0.6784 -0.0204
   20DC       P  603   2.036   3.949   8.455 -0.1049  0.0976  0.2883
   20DC     O1P  604   1.900   3.901   8.419 -0.0216  0.2465 -0.2219
   20DC     O2P  605   2.043   4.070   8.539 -0.1081  0.6596 -0.5091
   20DC     O5'  606   2.117   3.822   8.510  0.1360 -0.1791 -0.6942
   20DC     C5'  607   2.099   3.696   8.448 -0.3629 -0.4593  0.0075
   20DC    H5'1  608   2.125   3.716   8.344  0.2292  2.0989  0.5735
   20DC    H5'2  609   1.997   3.659   8.452  0.1006 -2.1698 -2.1935
   20DC     C4'  610   2.192   3.586   8.499  0.5317  0.2018 -0.1544
   20DC     H4'  611   2.141   3.494   8.470 -0.1081  0.3885  0.3719
   20DC     O4'  612   2.320   3.585   8.440  0.4616 -0.4106 -0.3097
   20DC     C1'  613   2.417   3.543   8.534  0.2801  0.0821  0.1030
   20DC     H1'  614   2.403   3.435   8.528 -1.2546  0.2928 -0.5690
   20DC      N1  615   2.555   3.582   8.501  0.1913  0.1415 -0.2051
   20DC      C6  616   2.602   3.710   8.502 -0.1585  0.2733  0.7808
   20DC      H6  617   2.542   3.800   8.504  1.0818  1.1168  1.0988
   20DC      C5  618   2.734   3.737   8.491 -0.0694 -0.2545  0.4972
   20DC      H5  619   2.769   3.839   8.500 -1.0570  0.0128  1.7857
   20DC      C4  620   2.821   3.624   8.485  0.1116 -0.0965  0.1159
   20DC      N4  621   2.949   3.631   8.448  0.1127  0.1889  0.1776
   20DC     H41  622   2.981   3.722   8.417 -2.5921  1.5173  0.9458
   20DC     H42  623   2.991   3.546   8.414  2.1503  1.5703 -1.0104
   20DC      N3  624   2.781   3.496   8.490  0.2044 -0.1193  0.2833
   20DC      C2  625   2.646   3.477   8.498  0.1490  0.1025 -0.1198
   20DC      O2  626   2.606   3.362   8.511  0.1876  0.0751 -0.2455
   20DC     C3'  627   2.208   3.565   8.649  0.2329 -0.3590 -0.1936
   20DC     H3'  628   2.143   3.642   8.690 -0.2088 -0.0875 -1.3666
   20DC     C2'  629   2.357   3.596   8.664  0.1798 -0.2996  0.2133
   20DC    H2'1  630   2.372   3.704   8.666 -0.3450 -0.1989 -0.8596
   20DC    H2'2  631   2.406   3.554   8.753  2.6882 -0.8294 -1.3086
   20DC     O3'  632   2.169   3.440   8.700 -0.1300  0.0978  0.6650
   21DT       P  633   2.177   3.400   8.856 -0.1626 -0.4485  0.5296
   21DT     O1P  634   2.070   3.304   8.893 -0.2926 -0.4083  0.2639
   21DT     O2P  635   2.204   3.521   8.936  0.3146  0.2105 -0.5971
   21DT     O5'  636   2.315   3.317   8.854  0.2182  0.1803  0.4713
   21DT     C5'  637   2.326   3.206   8.767  0.2257  0.1948  0.4546
   21DT    H5'1  638   2.318   3.231   8.662  0.9171 -2.8173 -0.4029
   21DT    H5'2  639   2.235   3.147   8.782  0.7693 -0.8444 -0.1988
   21DT     C4'  640   2.442   3.115   8.809  0.1794  0.0713  0.3125
   21DT     H4'  641   2.418   3.019   8.764 -0.2193 -0.1370  0.9493
   21DT     O4'  642   2.563   3.161   8.754  0.1843  0.0436  0.3006
   21DT     C1'  643   2.659   3.175   8.856  0.3941 -0.2655  0.1496
   21DT     H1'  644   2.721   3.086   8.861 -0.1633 -0.6782  5.0853
   21DT      N1  645   2.747   3.291   8.828  0.1068 -0.1243 -0.1720
   21DT      C6  646   2.699   3.418   8.840 -0.1628 -0.2548  0.1675
   21DT      H6  647   2.596   3.433   8.871 -0.4423  0.5463 -1.0858
   21DT      C5  648   2.779   3.525   8.819 -0.0710 -0.2923  0.3264
   21DT      C7  649   2.713   3.658   8.842  0.2409 -0.1809  0.5936
   21DT     H71  650   2.627   3.652   8.775 -0.5765  0.0631  1.6001
   21DT     H72  651   2.669   3.656   8.941 -1.1092  0.4928  0.0350
   21DT     H73  652   2.779   3.744   8.824 -1.3685  0.6881 -1.6906
   21DT      C4  653   2.919   3.515   8.784  0.0307  0.4121  0.5268
   21DT      O4  654   3.007   3.600   8.770  0.5035 -0.1617 -0.0665
   21DT      N3  655   2.951   3.383   8.757 -0.4901  0.4399 -0.2547
   21DT      H3  656   3.042   3.378   8.712 -1.5433  1.0259 -2.5828
   21DT      C2  657   2.878   3.270   8.790  0.1048  0.0426 -0.2742
   21DT      O2  658   2.922   3.156   8.775  0.5422  0.1077  0.4415
   21DT     C3'  659   2.465   3.105   8.959 -0.1307  0.0088  0.3583
   21DT     H3'  660   2.379   3.153   9.007 -1.5478 -1.9636 -0.0611
   21DT     C2'  661   2.590   3.186   8.992  0.1620 -0.3106  0.0345
   21DT    H2'1  662   2.552   3.282   9.027 -0.9711  0.0637 -2.0504
   21DT    H2'2  663   2.643   3.144   9.077 -1.9569 -2.0058  0.6137
   21DT     O3'  664   2.492   2.969   8.984 -0.2901 -0.0681  0.1128
   22DG       P  665   2.458   2.914   9.132 -0.1999 -0.2047  0.0822
   22DG     O1P  666   2.392   2.782   9.122  0.5555 -0.5472 -0.4045
   22DG     O2P  667   2.409   3.026   9.217 -0.0989 -0.1832  0.1131
   22DG     O5'  668   2.609   2.891   9.182 -0.0577 -0.0154 -0.2594
   22DG     C5'  669   2.688   2.790   9.123  0.1584  0.3214 -0.5525
   22DG    H5'1  670   2.687   2.810   9.016 -0.5374  0.1582 -0.5759
   22DG    H5'2  671   2.637   2.694   9.130 -0.5162  0.7828  1.4361
   22DG     C4'  672   2.835   2.791   9.165 -0.0176 -0.2421  0.0919
   22DG     H4'  673   2.875   2.692   9.145 -0.2001 -0.0354 -1.4069
   22DG     O4'  674   2.895   2.887   9.081  0.1953 -0.2598  0.2230
   22DG     C1'  675   2.978   2.971   9.158 -0.3171  0.0129  0.4772
   22DG     H1'  676   3.076   2.926   9.171  1.0436  2.7356  0.2498
   22DG      N9  677   3.008   3.104   9.103 -0.0208 -0.3975 -0.3784
   22DG      C8  678   2.945   3.222   9.136  0.3078 -0.3712  0.1679
   22DG      H8  679   2.859   3.236   9.199  0.5197 -0.9873  0.6022
   22DG      N7  680   3.007   3.329   9.093 -0.1279 -0.2324 -0.1288
   22DG      C5  681   3.125   3.281   9.037  0.0224  0.3805 -0.3443
   22DG      C6  682   3.228   3.342   8.961  0.2598  0.1342 -0.2237
   22DG      O6  683   3.247   3.461   8.936 -0.1355  0.1029 -0.6967
   22DG      N1  684   3.329   3.258   8.917  0.4679  0.1813  0.1546
   22DG      H1  685   3.412   3.303   8.881 -1.4682  1.7208 -2.8193
   22DG      C2  686   3.325   3.122   8.941 -0.0092  0.0867 -0.4277
   22DG      N2  687   3.433   3.048   8.912  0.4936  0.6558 -0.0300
   22DG     H21  688   3.513   3.098   8.876 -0.0901  2.8253  1.5163
   22DG     H22  689   3.437   2.952   8.945  0.8241  0.2507 -1.1886
   22DG      N3  690   3.218   3.060   8.993  0.1278  0.4220  0.2726
   22DG      C4  691   3.123   3.144   9.039  0.1898  0.3880  0.4613
   22DG     C3'  692   2.864   2.829   9.310  0.2796 -0.1367  0.0067
   22DG     H3'  693   2.775   2.816   9.372  0.7566  0.2919  0.7996
   22DG     C2'  694   2.909   2.974   9.294 -0.0981  0.0479  0.5872
   22DG    H2'1  695   2.814   3.027   9.287  0.2387  0.6265  0.2971
   22DG    H2'2  696   2.979   3.006   9.371 -0.8759  1.3103  0.8050
   22DG     O3'  697   2.977   2.759   9.355  0.3104 -0.2613 -0.2592
   23DC       P  698   2.966   2.635   9.457 -0.1639 -0.3788 -0.4522
   23DC     O1P  699   2.885   2.523   9.405 -0.3376 -0.5301  0.1369
   23DC     O2P  700   2.934   2.695   9.589  0.1202  0.2211 -0.6519
   23DC     O5'  701   3.122   2.596   9.443 -0.0020  0.1664 -0.2007
   23DC     C5'  702   3.175   2.530   9.331  0.2175 -0.6858  0.3985
   23DC    H5'1  703   3.113   2.564   9.248 -0.2894  1.0620  1.4533
   23DC    H5'2  704   3.167   2.424   9.352  0.8898 -0.7759  0.2239
   23DC     C4'  705   3.318   2.572   9.296 -0.1494  0.4326  0.2106
   23DC     H4'  706   3.359   2.509   9.217  0.5153  0.8950  0.1741
   23DC     O4'  707   3.326   2.703   9.243 -0.2010  0.1185 -0.5875
   23DC     C1'  708   3.415   2.783   9.316 -0.0129 -0.2967 -0.3547
   23DC     H1'  709   3.517   2.762   9.282 -0.1818 -0.0902 -1.0009
   23DC      N1  710   3.386   2.928   9.310  0.1831 -0.2354  0.1443
   23DC      C6  711   3.269   2.976   9.362  0.5627  0.7572  0.0997
   23DC      H6  712   3.201   2.905   9.407  2.8577 -0.5153  1.7990
   23DC      C5  713   3.241   3.108   9.372 -0.3643  0.5485  0.3345
   23DC      H5  714   3.152   3.148   9.418 -0.8359  0.2085 -0.2644
   23DC      C4  715   3.334   3.195   9.306 -0.0367 -0.0413  0.0070
   23DC      N4  716   3.291   3.321   9.294 -0.5019 -0.2280 -0.3135
   23DC     H41  717   3.220   3.357   9.356  0.3450  0.2208  0.4081
   23DC     H42  718   3.351   3.390   9.251 -0.1943  0.6211  1.4167
   23DC      N3  719   3.448   3.151   9.253  0.0288 -0.0086  0.1196
   23DC      C2  720   3.476   3.018   9.258  0.0736  0.0106  0.3785
   23DC      O2  721   3.585   2.983   9.212  0.2272  0.4389  0.4071
   23DC     C3'  722   3.408   2.573   9.419  0.2441 -0.2591 -0.0692
   23DC     H3'  723   3.367   2.523   9.506 -0.9250  1.0424  0.1603
   23DC     C2'  724   3.413   2.721   9.455 -0.3159 -0.1792 -0.3069
   23DC    H2'1  725   3.318   2.751   9.499 -0.3914 -1.3635  0.3932
   23DC    H2'2  726   3.499   2.737   9.520  0.6566  0.3653 -1.6875
   23DC     O3'  727   3.537   2.520   9.397  0.3599  0.0122 -0.0431
   24DG       P  728   3.645   2.500   9.515  0.3291  0.0461 -0.0095
   24DG     O1P  729   3.697   2.363   9.493 -0.4098 -0.3978  0.9049
   24DG     O2P  730   3.577   2.534   9.643  0.7788 -0.3930  0.3516
   24DG     O5'  731   3.764   2.605   9.491  0.3931 -0.0199  0.0184
   24DG     C5'  732   3.881   2.574   9.420  0.2164  0.0198 -0.2920
   24DG    H5'1  733   3.874   2.557   9.312  1.8711 -1.6370 -0.1988
   24DG    H5'2  734   3.912   2.472   9.443  0.8696 -0.2986 -2.3258
   24DG     C4'  735   3.993   2.672   9.453  0.0633  0.0594  0.1171
   24DG     H4'  736   4.080   2.651   9.390  0.9857  0.2353  1.2845
   24DG     O4'  737   3.942   2.802   9.432 -0.1740 -0.0316  0.1328
   24DG     C1'  738   3.947   2.884   9.547  0.0480  0.2938 -0.1083
   24DG     H1'  739   4.031   2.952   9.549 -1.9705  3.0518 -1.7315
   24DG      N9  740   3.819   2.957   9.553 -0.0292  0.0623  1.2854
   24DG      C8  741   3.690   2.918   9.577 -0.1495  0.0281  0.5837
   24DG      H8  742   3.666   2.816   9.606 -0.5715  0.3799  1.4849
   24DG      N7  743   3.604   3.015   9.567 -0.2640 -0.1418 -0.1819
   24DG      C5  744   3.674   3.128   9.528  0.0549 -0.2832 -0.0171
   24DG      C6  745   3.644   3.263   9.498  0.3223 -0.1395  0.3504
   24DG      O6  746   3.533   3.316   9.490  0.2266 -0.4260 -0.3213
   24DG      N1  747   3.754   3.342   9.469  0.1294  0.0091  0.0133
   24DG      H1  748   3.750   3.443   9.464  2.0578  0.0804 -1.3669
   24DG      C2  749   3.882   3.290   9.466  0.3016  0.3578  1.0594
   24DG      N2  750   3.984   3.375   9.446  0.4278 -0.1525 -0.5346
   24DG     H21  751   3.971   3.474   9.433 -1.1813  0.0097  1.8038
   24DG     H22  752   4.077   3.337   9.460 -0.0214 -2.6425 -3.2943
   24DG      N3  753   3.915   3.162   9.483 -0.0845  0.2006  0.6223
   24DG      C4  754   3.805   3.089   9.516  0.0362 -0.3170 -0.1087
   24DG     C3'  755   4.037   2.664   9.599 -0.0992  0.6490  0.1997
   24DG     H3'  756   4.008   2.568   9.640  3.2083 -2.2060 -3.3213
   24DG     C2'  757   3.957   2.779   9.658 -0.2260  0.5703  0.1790
   24DG    H2'1  758   3.857   2.738   9.671  0.1480 -1.2393 -2.0239
   24DG    H2'2  759   3.996   2.816   9.752  1.5520 -0.9861  0.0937
   24DG     O3'  760   4.177   2.684   9.594 -0.0426  0.1850 -0.1696
   25DC       P  761   4.255   2.684   9.735 -0.1707  0.3125 -0.1004
   25DC     O1P  762   4.395   2.651   9.699 -0.0789  0.6745 -0.0835
   25DC     O2P  763   4.196   2.591   9.834  0.8079 -0.3147 -0.0914
   25DC     O5'  764   4.268   2.832   9.799  0.7756 -0.0303  0.5224
   25DC     C5'  765   4.299   2.948   9.726  0.1370 -0.0702  0.1773
   25DC    H5'1  766   4.257   2.939   9.626 -2.3082  4.1805  0.6098
   25DC    H5'2  767   4.408   2.949   9.714  0.1490 -1.6062 -0.0785
   25DC     C4'  768   4.265   3.088   9.775 -0.0252  0.1665 -0.5899
   25DC     H4'  769   4.336   3.149   9.721 -0.5606  1.7100  0.3814
   25DC     O4'  770   4.133   3.119   9.738 -0.0375  0.6932 -0.1251
   25DC     C1'  771   4.073   3.189   9.845  0.0539  0.6549 -0.0496
   25DC     H1'  772   4.113   3.290   9.841 -0.5965  0.9958  1.4873
   25DC      N1  773   3.926   3.195   9.843  0.0453  0.5032  0.1309
   25DC      C6  774   3.838   3.095   9.876  0.0506  0.2481 -0.6040
   25DC      H6  775   3.878   3.000   9.909 -0.8475  1.0405  3.1756
   25DC      C5  776   3.708   3.123   9.898  0.2141  0.3435  0.2653
   25DC      H5  777   3.636   3.053   9.937 -1.1980  2.0493  0.8425
   25DC      C4  778   3.661   3.252   9.859  0.0270  0.1181 -0.2622
   25DC      N4  779   3.530   3.275   9.875  0.2242  0.8120  0.4520
   25DC     H41  780   3.474   3.194   9.898  0.0486  1.0271  0.7829
   25DC     H42  781   3.494   3.365   9.850 -0.7420 -0.0239 -1.3626
   25DC      N3  782   3.746   3.347   9.817  0.0777  0.0522 -0.3077
   25DC      C2  783   3.878   3.320   9.810  0.1826  0.5014 -0.0721
   25DC      O2  784   3.950   3.415   9.777 -0.2958  0.8003 -0.2677
   25DC     C3'  785   4.283   3.127   9.922 -0.0486  0.0591 -0.5582
   25DC     H3'  786   4.343   3.050   9.971  0.0891  1.2406  1.2132
   25DC     C2'  787   4.139   3.138   9.972  0.0668  0.1594 -0.2510
   25DC    H2'1  788   4.099   3.039   9.996  0.7048 -0.5926 -2.1249
   25DC    H2'2  789   4.132   3.208  10.055  2.7054  0.2338  0.0184
   25DC     O3'  790   4.338   3.255   9.942 -0.1743  0.0118  0.1109
   25DC     H3T  791   4.267   3.314   9.968 -1.6545 -0.5651 -2.2933
   26G      O5'  792   3.266   4.257   9.751 -0.0829 -0.0884 -0.1939
   26G      H5T  793   3.249   4.234   9.660 -3.0199 -0.2518  0.2776
   26G      C5'  794   3.356   4.365   9.764  0.4098 -0.4723 -0.4176
   26G     H5'1  795   3.350   4.403   9.866  1.2652 -3.1198  0.7156
   26G     H5'2  796   3.333   4.446   9.695 -0.4347 -1.1455 -0.9494
   26G      C4'  797   3.503   4.324   9.758  0.5624 -0.0085  0.0939
   26G      H4'  798   3.566   4.411   9.780  2.3445 -1.0195 -0.7861
   26G      O4'  799   3.537   4.227   9.853  0.0524  0.2631  0.5542
   26G      C1'  800   3.617   4.125   9.797 -0.1751  0.4176 -0.0492
   26G      H1'  801   3.697   4.107   9.868 -0.6718 -0.7685  0.2283
   26G       N9  802   3.538   4.001   9.786  0.0587  0.1932  0.7505
   26G       C8  803   3.403   3.977   9.779  0.0968  0.1599 -0.0130
   26G       H8  804   3.323   4.048   9.796 -0.2648 -0.5940  1.6088
   26G       N7  805   3.373   3.851   9.775  0.3155  0.1089 -0.0784
   26G       C5  806   3.493   3.781   9.776  0.1984 -0.1198 -0.7615
   26G       C6  807   3.521   3.642   9.768 -0.0779 -0.2114 -0.2365
   26G       O6  808   3.451   3.542   9.763 -0.6518  0.1624  0.1803
   26G       N1  809   3.658   3.624   9.770 -0.0748 -0.1697  0.1087
   26G       H1  810   3.690   3.528   9.775  1.8823  0.3212 -1.5343
   26G       C2  811   3.754   3.723   9.775 -0.2724  0.0113  0.2724
   26G       N2  812   3.884   3.694   9.779 -0.1780  0.3473 -0.2556
   26G      H21  813   3.921   3.601   9.795  0.6532  0.9958  2.1390
   26G      H22  814   3.950   3.770   9.792  0.2030  0.0903 -0.6626
   26G       N3  815   3.726   3.855   9.775 -0.0926  0.0500 -0.0838
   26G       C4  816   3.593   3.875   9.781 -0.0850  0.1653 -0.3018
   26G      C3'  817   3.552   4.279   9.620  0.1355 -0.1118 -0.0257
   26G      H3'  818   3.486   4.212   9.565 -1.2923 -1.0514  2.6487
   26G      C2'  819   3.666   4.188   9.667  0.2908  0.0735 -0.0426
   26G     H2'1  820   3.683   4.112   9.591 -0.2397  0.9501 -1.0800
   26G      O2'  821   3.787   4.253   9.698  0.1907  0.1907  0.1068
   26G     HO'2  822   3.800   4.323   9.633  0.1687 -0.2442 -0.3690
   26G      O3'  823   3.593   4.386   9.538  0.1102  0.2068  0.3707
   27C        P  824   3.615   4.368   9.379  0.0102 -0.0244  0.3819
   27C      O1P  825   3.681   4.493   9.334 -0.2885 -0.2513 -0.7017
   27C      O2P  826   3.483   4.329   9.325  0.1633  0.1121 -0.0938
   27C      O5'  827   3.727   4.253   9.363  0.0557  0.1647 -0.6718
   27C      C5'  828   3.864   4.284   9.383  0.0371 -0.3544  0.3059
   27C     H5'1  829   3.876   4.330   9.481  1.6001 -0.4028  0.1485
   27C     H5'2  830   3.902   4.360   9.315  2.1093 -1.6325 -0.0413
   27C      C4'  831   3.948   4.158   9.371  0.2736 -0.1500 -0.2106
   27C      H4'  832   4.054   4.180   9.386  0.5341 -0.9729 -0.7549
   27C      O4'  833   3.907   4.066   9.470 -0.5051 -0.0819 -0.4609
   27C      C1'  834   3.937   3.936   9.425  0.0147 -0.1032 -0.0648
   27C      H1'  835   4.009   3.894   9.495  1.4990  0.6607 -1.0735
   27C       N1  836   3.824   3.842   9.422  0.0610 -0.1549 -0.2107
   27C       C6  837   3.698   3.894   9.421  0.1677  0.1240  0.3112
   27C       H6  838   3.690   3.998   9.397 -0.6450 -0.4089 -1.9990
   27C       C5  839   3.590   3.813   9.411  0.1699  0.1847 -0.2436
   27C       H5  840   3.489   3.847   9.392  0.3842 -0.1821 -2.2420
   27C       C4  841   3.616   3.673   9.429 -0.1112  0.1485 -0.1159
   27C       N4  842   3.511   3.590   9.430 -0.2134  0.2723  0.7618
   27C      H41  843   3.423   3.638   9.440 -0.0290  0.9853 -0.7379
   27C      H42  844   3.527   3.492   9.448  3.7175  0.8810  1.7092
   27C       N3  845   3.740   3.623   9.438 -0.2011 -0.1818 -0.6920
   27C       C2  846   3.847   3.705   9.427 -0.0936 -0.1622  0.3825
   27C       O2  847   3.961   3.659   9.431  0.2229  0.5454 -0.2670
   27C      C3'  848   3.944   4.085   9.236 -0.3525 -0.2151 -0.1592
   27C      H3'  849   3.846   4.083   9.189 -0.1790  0.5987 -0.5765
   27C      C2'  850   3.998   3.951   9.285 -0.3577 -0.2470 -0.2413
   27C     H2'1  851   3.977   3.869   9.216  1.8870 -2.5822  1.6423
   27C      O2'  852   4.137   3.943   9.307 -0.4253 -0.6228  0.0598
   27C     HO'2  853   4.168   3.873   9.250 -0.5284 -0.0519 -0.7226
   27C      O3'  854   4.033   4.139   9.141  0.1165 -0.0965  0.3360
   28G        P  855   4.050   4.086   8.990 -0.1967  0.0793  0.2371
   28G      O1P  856   4.159   4.160   8.922 -0.5483 -0.0235 -0.4449
   28G      O2P  857   3.917   4.094   8.925 -0.0970 -0.1950 -0.0059
   28G      O5'  858   4.095   3.931   8.984  0.3005  0.2157  0.4406
   28G      C5'  859   4.227   3.891   9.015  0.2679 -0.2648 -0.0356
   28G     H5'1  860   4.266   3.940   9.104 -1.2005 -0.2368  0.6302
   28G     H5'2  861   4.289   3.932   8.935  0.0499  0.2279  0.0435
   28G      C4'  862   4.253   3.744   9.046  0.1363 -0.3031 -0.1084
   28G      H4'  863   4.355   3.741   9.084 -0.0419  0.7507  0.4701
   28G      O4'  864   4.160   3.692   9.139 -0.1508  0.0791 -0.1799
   28G      C1'  865   4.095   3.576   9.092  0.0660 -0.1736  0.1445
   28G      H1'  866   4.106   3.493   9.162 -0.4802 -0.6917 -0.3664
   28G       N9  867   3.949   3.585   9.079  0.0783 -0.4327 -0.1907
   28G       C8  868   3.870   3.695   9.056 -0.5686 -0.7405  0.5339
   28G       H8  869   3.919   3.784   9.019 -1.4537 -2.0379 -4.4050
   28G       N7  870   3.743   3.675   9.080 -0.6948  0.2085  0.7084
   28G       C5  871   3.741   3.538   9.103 -0.0595  0.1928  0.7059
   28G       C6  872   3.627   3.453   9.118  0.0114 -0.0437 -0.0367
   28G       O6  873   3.509   3.480   9.134 -0.0770 -0.3839 -0.1205
   28G       N1  874   3.659   3.318   9.122  0.5924  0.0791 -0.3252
   28G       H1  875   3.585   3.260   9.160  1.7216 -1.1156  0.1010
   28G       C2  876   3.789   3.273   9.125  0.5446 -0.0290  0.0955
   28G       N2  877   3.796   3.143   9.159 -0.5527 -0.1574 -0.1270
   28G      H21  878   3.710   3.090   9.162  0.9782 -2.7971  0.0633
   28G      H22  879   3.881   3.091   9.175  0.7462  1.0159 -2.5317
   28G       N3  880   3.899   3.349   9.118  0.4840  0.0652  0.1558
   28G       C4  881   3.864   3.479   9.100 -0.2536 -0.1848 -0.2673
   28G      C3'  882   4.226   3.663   8.919  0.0057 -0.3894 -0.0271
   28G      H3'  883   4.142   3.715   8.872  0.5315 -0.7090 -1.3670
   28G      C2'  884   4.176   3.529   8.971 -0.1536 -0.3022  0.0474
   28G     H2'1  885   4.107   3.479   8.903 -1.4330  0.9344  0.4078
   28G      O2'  886   4.280   3.450   9.024  0.0758 -0.1352 -0.1527
   28G     HO'2  887   4.255   3.357   9.016  1.4802 -0.6792  1.1850
   28G      O3'  888   4.339   3.648   8.836  0.1759 -0.1980  0.1671
   29C        P  889   4.321   3.604   8.682  0.1154 -0.0169  0.1219
   29C      O1P  890   4.451   3.563   8.626 -0.0044  0.0942 -0.2423
   29C      O2P  891   4.250   3.711   8.609  0.0106 -0.2232 -0.0820
   29C      O5'  892   4.225   3.474   8.677 -0.1748  0.2000 -0.0261
   29C      C5'  893   4.277   3.345   8.703 -0.2218  0.1209 -0.3285
   29C     H5'1  894   4.346   3.344   8.787  0.4822 -0.0075 -0.8999
   29C     H5'2  895   4.325   3.308   8.612 -1.5840 -2.3146 -0.1396
   29C      C4'  896   4.162   3.246   8.724 -0.4913  0.4809 -0.0961
   29C      H4'  897   4.212   3.153   8.749  0.5206  0.9078 -0.4557
   29C      O4'  898   4.063   3.265   8.822 -0.2581 -0.3282  0.2999
   29C      C1'  899   3.941   3.205   8.785 -0.2221 -0.0977 -0.1975
   29C      H1'  900   3.928   3.115   8.846 -0.2221 -1.1823 -1.7439
   29C       N1  901   3.827   3.298   8.799 -0.0235  0.0348  0.6104
   29C       C6  902   3.845   3.431   8.776 -0.0738 -0.0768 -0.1085
   29C       H6  903   3.949   3.459   8.772  0.5982 -1.9994  1.7616
   29C       C5  904   3.742   3.518   8.779  0.1331  0.1685 -0.0730
   29C       H5  905   3.756   3.623   8.798 -0.7089  0.4527 -0.9648
   29C       C4  906   3.612   3.461   8.804  0.1172  0.2222 -0.0362
   29C       N4  907   3.501   3.536   8.804 -0.4013 -0.5305 -0.1776
   29C      H41  908   3.501   3.637   8.794 -3.2753 -0.1361  2.4820
   29C      H42  909   3.413   3.493   8.824 -0.6585 -1.3248 -2.7188
   29C       N3  910   3.590   3.330   8.819 -0.3934  0.2850 -0.2169
   29C       C2  911   3.698   3.248   8.808 -0.2782  0.4659 -0.4415
   29C       O2  912   3.679   3.126   8.805 -0.1235  0.4333 -0.0930
   29C      C3'  913   4.083   3.230   8.595 -0.2546  0.3188 -0.2211
   29C      H3'  914   4.063   3.329   8.555  0.7788 -0.0080 -1.6146
   29C      C2'  915   3.954   3.161   8.639 -0.0957  0.0176 -0.2196
   29C     H2'1  916   3.874   3.194   8.572  1.1717  2.4007 -0.6636
   29C      O2'  917   3.960   3.021   8.629  0.2079  0.0194 -0.0727
   29C     HO'2  918   3.935   2.994   8.540  2.3103  1.5318 -1.2148
   29C      O3'  919   4.157   3.162   8.496 -0.5989 -0.4811  0.0615
   30A        P  920   4.106   3.146   8.344  0.1245 -0.0470 -0.2323
   30A      O1P  921   4.218   3.083   8.270  0.3968 -0.2971  0.3822
   30A      O2P  922   4.052   3.280   8.313  0.3847  0.0254 -0.3714
   30A      O5'  923   3.987   3.039   8.359  0.0741  0.0540  0.0998
   30A      C5'  924   3.888   3.031   8.259 -0.0275  0.4597  0.1650
   30A     H5'1  925   3.921   2.970   8.175  0.0948 -0.8186  1.1042
   30A     H5'2  926   3.861   3.131   8.227  0.8349  0.3033 -1.1323
   30A      C4'  927   3.763   2.971   8.323 -0.2084  0.7355  0.0715
   30A      H4'  928   3.790   2.872   8.360  1.6075  0.9735 -0.5195
   30A      O4'  929   3.734   3.048   8.438 -0.2385  0.6621  0.1126
   30A      C1'  930   3.596   3.032   8.465 -0.1412 -0.2291  0.1266
   30A      H1'  931   3.578   2.982   8.559 -2.7580  0.2778 -0.0148
   30A       N9  932   3.541   3.168   8.479 -0.0217 -0.1053 -0.5715
   30A       C8  933   3.587   3.290   8.437 -0.6424  0.4707  0.3777
   30A       H8  934   3.681   3.293   8.382 -0.8201 -0.0254  0.0443
   30A       N7  935   3.512   3.394   8.463 -0.8926  0.4070 -0.0758
   30A       C5  936   3.404   3.331   8.523 -0.6678 -0.0105 -0.1029
   30A       C6  937   3.283   3.378   8.575 -0.7770 -0.0435 -0.3271
   30A       N6  938   3.254   3.509   8.585 -0.2338  0.1069 -0.6795
   30A      H61  939   3.327   3.569   8.551 -0.7804  1.4603  0.4189
   30A      H62  940   3.170   3.551   8.623 -0.2329 -0.3151 -0.1968
   30A       N1  941   3.188   3.290   8.612 -0.1989 -0.3918  0.3513
   30A       C2  942   3.212   3.160   8.604  0.7486 -0.2289  0.3890
   30A       H2  943   3.126   3.097   8.617  0.5048  0.0967  0.3843
   30A       N3  944   3.328   3.103   8.575  0.5916 -0.3189 -0.0740
   30A       C4  945   3.416   3.195   8.529  0.3261  0.0815  0.2091
   30A      C3'  946   3.638   2.963   8.236 -0.0242  0.4145 -0.1661
   30A      H3'  947   3.623   3.057   8.183 -1.6825  1.3044  1.7744
   30A      C2'  948   3.533   2.959   8.346  0.0599 -0.0372 -0.1010
   30A     H2'1  949   3.441   2.999   8.303  1.2406 -0.2741 -3.0481
   30A      O2'  950   3.502   2.826   8.382 -0.2396 -0.0065 -0.2375
   30A     HO'2  951   3.487   2.782   8.299 -2.7163 -1.3767  0.8344
   30A      O3'  952   3.632   2.854   8.146 -0.8420 -0.0434  0.4338
   31G        P  953   3.578   2.870   7.995 -0.3608  0.1654  0.2834
   31G      O1P  954   3.653   2.782   7.903 -0.6705 -0.4203  0.5868
   31G      O2P  955   3.563   3.013   7.960 -0.0866  0.2583  0.5375
   31G      O5'  956   3.431   2.804   7.989 -0.0400 -0.5203 -0.1257
   31G      C5'  957   3.409   2.678   8.047 -0.1109 -0.4412  0.0206
   31G     H5'1  958   3.493   2.646   8.109  1.2923  0.4923 -1.3425
   31G     H5'2  959   3.401   2.606   7.966  0.3976  1.2070 -1.5550
   31G      C4'  960   3.278   2.686   8.126 -0.2076 -0.1813 -0.1653
   31G      H4'  961   3.255   2.596   8.183 -1.8305  1.5355  2.0203
   31G      O4'  962   3.302   2.789   8.219  0.1147 -0.0171 -0.4260
   31G      C1'  963   3.173   2.838   8.249  0.0498 -0.0050 -0.7230
   31G      H1'  964   3.159   2.823   8.356  0.7453  0.0216 -0.6247
   31G       N9  965   3.165   2.984   8.225 -0.1687  0.1149  0.0740
   31G       C8  966   3.243   3.076   8.161  0.3551 -0.0473  0.4698
   31G       H8  967   3.329   3.053   8.099  0.1905 -2.3225  0.9842
   31G       N7  968   3.214   3.202   8.170 -0.3991 -0.1994  0.2235
   31G       C5  969   3.100   3.196   8.250 -0.1158 -0.3144  0.6193
   31G       C6  970   3.017   3.297   8.305 -0.2489  0.0432 -0.2347
   31G       O6  971   3.025   3.419   8.290 -0.0717  0.0849  0.1920
   31G       N1  972   2.915   3.250   8.386  0.3101 -0.1658  0.3508
   31G       H1  973   2.861   3.321   8.433  0.5082 -0.0767  0.4427
   31G       C2  974   2.900   3.117   8.420  0.3451 -0.2117  0.1855
   31G       N2  975   2.800   3.088   8.504 -0.7036  0.5215 -0.7791
   31G      H21  976   2.740   3.157   8.546 -0.1214  0.4049  0.2880
   31G      H22  977   2.798   2.993   8.539  1.0010  0.7573  0.0550
   31G       N3  978   2.972   3.019   8.363 -0.5736 -0.7190 -0.1311
   31G       C4  979   3.074   3.066   8.287 -0.3505 -0.3287  0.4060
   31G      C3'  980   3.151   2.717   8.046  0.1731  0.6963 -0.4451
   31G      H3'  981   3.174   2.809   7.993 -3.8898  3.0243  1.3922
   31G      C2'  982   3.069   2.763   8.166  0.0213 -0.8580  0.0741
   31G     H2'1  983   2.994   2.832   8.127  2.3000  0.6640 -1.8716
   31G      O2'  984   3.005   2.666   8.246 -0.2957 -0.4754  0.2849
   31G     HO'2  985   2.943   2.716   8.301  1.6957  1.7938  0.6410
   31G      O3'  986   3.095   2.607   7.977  0.6435  0.4437 -0.4314
   32A        P  987   2.973   2.626   7.874  0.0065 -0.2426  0.1897
   32A      O1P  988   2.945   2.486   7.837  0.8239 -0.2579 -0.3756
   32A      O2P  989   3.025   2.718   7.770 -0.3936  0.3063  0.4654
   32A      O5'  990   2.851   2.695   7.954  0.0755  0.0038  0.0843
   32A      C5'  991   2.754   2.623   8.028  0.1479  0.1463  0.3200
   32A     H5'1  992   2.806   2.559   8.099  0.9665  0.9602  0.4643
   32A     H5'2  993   2.695   2.557   7.964 -0.6814  1.6334 -0.5003
   32A      C4'  994   2.663   2.720   8.101  0.1379  0.4739 -0.1196
   32A      H4'  995   2.595   2.664   8.166 -2.5019  1.6364 -1.7095
   32A      O4'  996   2.734   2.819   8.173  0.7434  0.0657 -0.1494
   32A      C1'  997   2.664   2.941   8.159 -0.0808 -0.2966  0.6700
   32A      H1'  998   2.634   2.983   8.255  0.1081  0.4864  0.3948
   32A       N9  999   2.751   3.034   8.085 -0.4708 -0.5031 -0.0638
   32A       C8 1000   2.854   3.018   7.996 -0.3162  0.7245 -0.1235
   32A       H8 1001   2.890   2.922   7.961  0.0668  0.5987  0.6010
   32A       N7 1002   2.903   3.127   7.943  0.5228  0.0851 -0.6824
   32A       C5 1003   2.833   3.224   8.014  0.0679 -0.4088 -0.4488
   32A       C6 1004   2.834   3.364   8.012  0.0597 -0.3988  0.1598
   32A       N6 1005   2.913   3.448   7.945 -0.2954 -0.1420  0.0590
   32A      H61 1006   2.974   3.405   7.876  0.6890 -0.1518  0.9182
   32A      H62 1007   2.892   3.547   7.944  1.7780  0.3520 -0.3019
   32A       N1 1008   2.757   3.433   8.098  0.3946  0.0764  0.0819
   32A       C2 1009   2.663   3.369   8.166  0.4666 -0.1401 -0.0228
   32A       H2 1010   2.602   3.426   8.234  0.7395 -0.0608  0.1612
   32A       N3 1011   2.648   3.237   8.173  0.0791 -0.1314 -0.6573
   32A       C4 1012   2.736   3.170   8.095  0.2250 -0.4089 -0.2579
   32A      C3' 1013   2.571   2.790   8.002 -0.6408  0.1623  0.3696
   32A      H3' 1014   2.620   2.820   7.909 -1.1480 -0.3072 -0.0564
   32A      C2' 1015   2.537   2.919   8.077  0.0259  0.3716  0.3177
   32A     H2'1 1016   2.502   2.993   8.005 -2.1572 -0.2543  0.6594
   32A      O2' 1017   2.434   2.901   8.171  0.0654 -0.2692  0.2431
   32A     HO'2 1018   2.388   2.817   8.158  0.8564 -0.3911 -2.0617
   32A      O3' 1019   2.450   2.725   7.970 -0.2897 -0.2973 -0.0268
   33U        P 1020   2.396   2.714   7.818 -0.1998 -0.1481 -0.0699
   33U      O1P 1021   2.282   2.620   7.825  0.1606 -0.5673  0.2304
   33U      O2P 1022   2.507   2.688   7.724 -0.2305  0.3830 -0.2573
   33U      O5' 1023   2.349   2.864   7.784  0.0807 -0.0703 -0.1195
   33U      C5' 1024   2.231   2.908   7.847 -0.0120 -0.1587 -0.2295
   33U     H5'1 1025   2.241   2.888   7.954  1.8436 -2.2965 -0.7344
   33U     H5'2 1026   2.143   2.854   7.813  1.0898 -2.1176 -0.1081
   33U      C4' 1027   2.214   3.057   7.821 -0.1372 -0.0891  0.2329
   33U      H4' 1028   2.117   3.082   7.865  0.2634  1.9263  0.0465
   33U      O4' 1029   2.320   3.135   7.871 -0.4809  0.4154  0.1821
   33U      C1' 1030   2.329   3.250   7.789 -0.1060 -0.0740 -0.4683
   33U      H1' 1031   2.293   3.336   7.845  0.5470 -0.9635  1.4317
   33U       N1 1032   2.466   3.277   7.741  0.0908 -0.1573  0.0366
   33U       C6 1033   2.559   3.178   7.729  0.5496  0.1871  0.6726
   33U       H6 1034   2.528   3.077   7.750  1.2965 -0.8796 -2.8117
   33U       C5 1035   2.688   3.204   7.699  0.2287  0.5472 -0.4478
   33U       H5 1036   2.764   3.128   7.700  0.0692  0.3818 -0.7292
   33U       C4 1037   2.736   3.339   7.683  0.1817  0.5499 -0.5669
   33U       O4 1038   2.854   3.368   7.664  0.5989 -0.7923 -0.1830
   33U       N3 1039   2.638   3.434   7.708 -0.1337  0.0090  0.2973
   33U       H3 1040   2.670   3.529   7.711 -1.5911  0.4895  1.3344
   33U       C2 1041   2.505   3.410   7.742 -0.0188 -0.1250  0.6515
   33U       O2 1042   2.426   3.502   7.761 -0.0508 -0.0064 -0.0291
   33U      C3' 1043   2.212   3.081   7.670  0.4544 -0.3898  0.1736
   33U      H3' 1044   2.294   3.029   7.622  1.0544  1.7184 -1.2229
   33U      C2' 1045   2.236   3.232   7.670 -0.0494 -0.3050 -0.4794
   33U     H2'1 1046   2.291   3.269   7.583 -2.9650  3.0854 -1.1350
   33U      O2' 1047   2.125   3.314   7.700  0.0734 -0.5806  0.7732
   33U     HO'2 1048   2.077   3.319   7.617  1.2542 -0.7901  0.0505
   33U      O3' 1049   2.094   3.050   7.598  0.4783 -0.2185  0.0587
   34G        P 1050   2.091   3.057   7.438  0.0180 -0.2755  0.0641
   34G      O1P 1051   1.980   2.979   7.379 -0.1740 -0.2051  0.3334
   34G      O2P 1052   2.227   3.021   7.391  0.2286 -0.2921  0.6880
   34G      O5' 1053   2.066   3.214   7.410 -0.1895 -0.3254 -0.0326
   34G      C5' 1054   1.941   3.275   7.431 -0.1096 -0.3160  0.4386
   34G     H5'1 1055   1.907   3.243   7.530 -0.7304  0.3399  0.4494
   34G     H5'2 1056   1.862   3.253   7.359  0.5946 -0.0892 -0.4290
   34G      C4' 1057   1.963   3.426   7.416  0.3470 -0.4298 -0.0537
   34G      H4' 1058   1.877   3.480   7.454 -0.5469 -0.2709 -2.1255
   34G      O4' 1059   2.074   3.463   7.494  0.1952 -0.2044  0.0575
   34G      C1' 1060   2.145   3.575   7.446  0.2374 -0.1430  0.2619
   34G      H1' 1061   2.131   3.661   7.511  2.2414  0.4186  0.0066
   34G       N9 1062   2.289   3.549   7.425  0.2585  0.0968  0.1112
   34G       C8 1063   2.354   3.439   7.375 -0.0205  0.2904 -0.7079
   34G       H8 1064   2.307   3.345   7.352  1.5594 -1.7363  3.2785
   34G       N7 1065   2.483   3.447   7.362  0.0826 -0.1166 -0.0409
   34G       C5 1066   2.513   3.578   7.398  0.2433 -0.0770 -0.3130
   34G       C6 1067   2.631   3.657   7.403  0.1384  0.0500  0.2364
   34G       O6 1068   2.746   3.616   7.395  0.2105  0.1973  0.5065
   34G       N1 1069   2.609   3.790   7.438  0.0935  0.0092  0.3611
   34G       H1 1070   2.685   3.855   7.437 -1.1726  1.8425 -4.5972
   34G       C2 1071   2.484   3.847   7.453 -0.0461 -0.0751 -0.4392
   34G       N2 1072   2.478   3.978   7.481 -0.0219 -0.1580 -0.0409
   34G      H21 1073   2.562   4.032   7.491  0.2807 -0.6138 -0.1143
   34G      H22 1074   2.390   4.027   7.474  0.7748  1.4025  0.3644
   34G       N3 1075   2.374   3.770   7.451  0.0073 -0.2294  1.0020
   34G       C4 1076   2.392   3.640   7.421  0.3949 -0.0448  0.4174
   34G      C3' 1077   1.995   3.478   7.276  0.0155 -0.1158 -0.0138
   34G      H3' 1078   2.067   3.411   7.228 -0.3498 -1.1095  0.7790
   34G      C2' 1079   2.065   3.606   7.319 -0.0812 -0.2164  0.4442
   34G     H2'1 1080   2.127   3.651   7.242  0.9337 -1.0949  0.7220
   34G      O2' 1081   1.966   3.699   7.355  0.3268  0.3728  0.0584
   34G     HO'2 1082   1.886   3.657   7.322 -0.7400  3.3139 -1.4616
   34G      O3' 1083   1.879   3.504   7.199  0.1398 -0.3580 -0.2834
   35C        P 1084   1.903   3.548   7.046 -0.0755 -0.0942 -0.2413
   35C      O1P 1085   1.770   3.570   6.985  0.3736  0.6235 -0.9827
   35C      O2P 1086   1.981   3.440   6.982  0.3694 -0.0166  0.1635
   35C      O5' 1087   1.986   3.686   7.037 -0.2244  0.0332  0.3052
   35C      C5' 1088   1.933   3.814   7.061  0.2620  0.3131 -0.0880
   35C     H5'1 1089   1.892   3.819   7.162  0.8722 -0.5909  0.2150
   35C     H5'2 1090   1.849   3.844   6.998  0.9042 -0.5088 -1.3733
   35C      C4' 1091   2.039   3.923   7.057  0.2044  0.3736  0.0168
   35C      H4' 1092   2.006   4.023   7.084 -1.7573 -0.7164  1.9274
   35C      O4' 1093   2.150   3.892   7.138  0.3290 -0.2585 -0.3879
   35C      C1' 1094   2.269   3.951   7.091  0.0182  0.3976 -0.3672
   35C      H1' 1095   2.295   4.031   7.159 -2.0220 -0.1643  1.1650
   35C       N1 1096   2.379   3.853   7.080  0.0455  0.3849  0.0157
   35C       C6 1097   2.365   3.719   7.063  0.7324  0.3127 -0.0098
   35C       H6 1098   2.262   3.691   7.045  0.6246  0.2250  0.7051
   35C       C5 1099   2.465   3.628   7.061 -0.0863 -0.6198  0.2604
   35C       H5 1100   2.448   3.522   7.050  0.9378 -0.9338  1.4082
   35C       C4 1101   2.594   3.689   7.076 -0.3198 -0.0734  0.0573
   35C       N4 1102   2.697   3.612   7.039 -0.1266  0.4799 -0.5825
   35C      H41 1103   2.686   3.511   7.036  0.5314  0.4183 -1.9100
   35C      H42 1104   2.791   3.647   7.041 -1.0506  3.1819 -0.1948
   35C       N3 1105   2.615   3.819   7.099  0.0483 -0.0477 -0.4193
   35C       C2 1106   2.507   3.901   7.100  0.1607  0.0949 -0.0245
   35C       O2 1107   2.528   4.022   7.114  0.1216  0.0395  0.5582
   35C      C3' 1108   2.102   3.943   6.919 -0.0144 -0.0717 -0.1485
   35C      H3' 1109   2.137   3.848   6.877  1.5258 -0.8230  2.5702
   35C      C2' 1110   2.230   4.016   6.958 -0.0924  0.2130 -0.4259
   35C     H2'1 1111   2.304   4.014   6.878  0.8570  2.1257  0.3404
   35C      O2' 1112   2.217   4.154   6.984 -0.2718  0.1785 -0.3291
   35C     HO'2 1113   2.286   4.198   6.934  0.7453 -0.4375  0.4758
   35C      O3' 1114   2.024   4.011   6.824  0.0264  0.0211 -0.1153
   36C        P 1115   2.062   4.007   6.668 -0.0936 -0.2042 -0.1382
   36C      O1P 1116   1.955   4.083   6.598  0.0363  0.1319  0.0319
   36C      O2P 1117   2.086   3.867   6.626  0.0414 -0.3454  0.3992
   36C      O5' 1118   2.200   4.086   6.648 -0.4997  0.4404 -0.4462
   36C      C5' 1119   2.212   4.225   6.669  0.5722  0.3344 -0.2483
   36C     H5'1 1120   2.160   4.256   6.759 -1.4544 -1.1529 -0.8181
   36C     H5'2 1121   2.162   4.273   6.585 -0.1988  0.1046  0.0639
   36C      C4' 1122   2.355   4.276   6.677  0.4187  0.7448 -0.0819
   36C      H4' 1123   2.351   4.383   6.699  3.3523  1.1999 -1.3356
   36C      O4' 1124   2.423   4.216   6.785 -0.2315  0.7303  0.3236
   36C      C1' 1125   2.562   4.207   6.762 -0.2938  0.4291  0.0597
   36C      H1' 1126   2.611   4.269   6.837  1.2594  2.5804 -2.5320
   36C       N1 1127   2.615   4.070   6.753  0.1112  0.5875  0.0327
   36C       C6 1128   2.538   3.958   6.746  0.4719  0.3515 -0.2504
   36C       H6 1129   2.430   3.963   6.736  0.2507 -2.0794  0.3269
   36C       C5 1130   2.592   3.834   6.746  0.1765  0.2177  0.1280
   36C       H5 1131   2.529   3.750   6.725 -0.2205  0.8063 -1.1620
   36C       C4 1132   2.735   3.825   6.750  0.1760  0.2111  0.1434
   36C       N4 1133   2.798   3.706   6.750  0.1124  0.1761  0.3228
   36C      H41 1134   2.749   3.618   6.757  1.6759 -1.1040 -2.6604
   36C      H42 1135   2.898   3.701   6.757  0.0472 -1.4494  0.4323
   36C       N3 1136   2.811   3.935   6.758  0.4143  0.0853 -0.3612
   36C       C2 1137   2.752   4.057   6.767  0.0506 -0.1177  0.0311
   36C       O2 1138   2.830   4.151   6.782 -0.2011  0.1195 -0.1440
   36C      C3' 1139   2.457   4.264   6.565  0.1527 -0.3099 -0.2198
   36C      H3' 1140   2.457   4.165   6.519  3.1057 -0.3866 -0.2499
   36C      C2' 1141   2.594   4.278   6.631  0.0476  0.0302 -0.0760
   36C     H2'1 1142   2.669   4.226   6.571  0.5087  1.0443 -0.4075
   36C      O2' 1143   2.627   4.414   6.651  0.0254  0.0208  0.0270
   36C     HO'2 1144   2.604   4.460   6.570  2.2402 -0.6871 -1.1095
   36C      O3' 1145   2.435   4.365   6.470 -0.7083 -0.5295 -0.2628
   37C        P 1146   2.465   4.353   6.312 -0.0800 -0.2597 -0.1701
   37C      O1P 1147   2.431   4.483   6.250 -0.0907  0.1341  0.6437
   37C      O2P 1148   2.399   4.229   6.264 -0.6183 -0.3827  0.8432
   37C      O5' 1149   2.622   4.323   6.297 -0.1073 -0.3759 -0.2292
   37C      C5' 1150   2.724   4.421   6.302  0.1463 -0.6444 -0.1032
   37C     H5'1 1151   2.704   4.486   6.387 -1.6615 -2.0632  0.6203
   37C     H5'2 1152   2.722   4.485   6.213  0.5056  0.4382  0.6504
   37C      C4' 1153   2.866   4.368   6.318  0.3661 -0.0520 -0.0756
   37C      H4' 1154   2.933   4.454   6.326 -0.4438  0.4750  1.4071
   37C      O4' 1155   2.873   4.285   6.431 -0.3000 -0.2167 -0.1546
   37C      C1' 1156   2.961   4.178   6.406 -0.6701 -0.5058 -0.2470
   37C      H1' 1157   3.030   4.178   6.491 -1.1108 -1.3936  0.1223
   37C       N1 1158   2.902   4.044   6.418  0.0395 -0.8174 -0.1785
   37C       C6 1159   2.769   4.030   6.391 -0.0991  0.3340 -0.1435
   37C       H6 1160   2.700   4.110   6.371 -1.0365 -0.4785 -0.2331
   37C       C5 1161   2.718   3.905   6.397  0.2969  0.1721 -0.1192
   37C       H5 1162   2.612   3.898   6.379  0.0840  0.0440  1.0812
   37C       C4 1163   2.806   3.794   6.419  0.1376  0.0867  0.0928
   37C       N4 1164   2.761   3.668   6.429  0.1809  0.0404 -0.2729
   37C      H41 1165   2.662   3.649   6.425  0.0362  0.8947 -1.1098
   37C      H42 1166   2.837   3.605   6.451  1.0108  0.3825 -1.9373
   37C       N3 1167   2.938   3.810   6.435  0.1685  0.0965 -0.1646
   37C       C2 1168   2.985   3.937   6.446  0.5594 -0.1376  0.9452
   37C       O2 1169   3.101   3.960   6.481  0.9526 -0.1251 -0.3293
   37C      C3' 1170   2.911   4.283   6.200 -0.5953 -0.5407 -0.0978
   37C      H3' 1171   2.828   4.220   6.166 -1.7779  1.4846 -1.1556
   37C      C2' 1172   3.025   4.211   6.272 -0.2840  0.1393  0.0892
   37C     H2'1 1173   3.045   4.122   6.212  0.5833  0.2543  0.1878
   37C      O2' 1174   3.139   4.290   6.298 -0.0834 -0.0551 -0.1913
   37C     HO'2 1175   3.109   4.381   6.297 -0.2749 -0.1036 -2.0270
   37C      O3' 1176   2.964   4.369   6.101 -0.2855 -0.4586  0.1377
   38U        P 1177   3.017   4.318   5.958 -0.0606 -0.2306  0.1401
   38U      O1P 1178   3.064   4.438   5.885 -0.3515 -0.4302 -0.3803
   38U      O2P 1179   2.898   4.248   5.905 -0.2001 -0.1432  0.3371
   38U      O5' 1180   3.140   4.216   5.977 -0.0504 -0.1815  0.3343
   38U      C5' 1181   3.268   4.266   6.008 -0.2083  0.2929  0.2259
   38U     H5'1 1182   3.270   4.317   6.104 -1.6033 -0.0802  0.4759
   38U     H5'2 1183   3.306   4.331   5.930 -0.7902 -0.7149 -0.9332
   38U      C4' 1184   3.373   4.155   6.011 -0.7621 -0.2452 -0.0594
   38U      H4' 1185   3.469   4.201   6.035 -1.0754  1.2233 -1.4200
   38U      O4' 1186   3.350   4.068   6.120  0.3286 -0.0368  0.3498
   38U      C1' 1187   3.393   3.937   6.093  0.1330 -0.0040 -0.1377
   38U      H1' 1188   3.458   3.906   6.175  1.3344 -0.4029 -1.2115
   38U       N1 1189   3.278   3.845   6.080  0.2962 -0.2705  0.2775
   38U       C6 1190   3.149   3.888   6.069  0.4965  0.2647 -0.0680
   38U       H6 1191   3.139   3.990   6.035  0.7772 -0.2940 -1.9423
   38U       C5 1192   3.041   3.808   6.085  0.4376  0.2589 -0.4871
   38U       H5 1193   2.944   3.854   6.078  0.2731 -0.0346 -0.2011
   38U       C4 1194   3.058   3.667   6.112 -0.0999  0.3695  0.4762
   38U       O4 1195   2.967   3.585   6.124 -0.0819  0.3446  0.4467
   38U       N3 1196   3.192   3.632   6.125 -0.2048 -0.3186 -0.1848
   38U       H3 1197   3.211   3.538   6.158 -0.5826 -0.0020  1.0046
   38U       C2 1198   3.304   3.714   6.114 -0.1005 -0.4516 -0.1122
   38U       O2 1199   3.415   3.663   6.125  0.1348  0.0865  0.0456
   38U      C3' 1200   3.395   4.067   5.889  0.4599 -0.0107 -0.0176
   38U      H3' 1201   3.304   4.032   5.840  1.4135 -3.4017  0.3321
   38U      C2' 1202   3.457   3.943   5.954  0.0991 -0.2724 -0.1670
   38U     H2'1 1203   3.447   3.847   5.904  2.5659 -1.3185  1.1943
   38U      O2' 1204   3.593   3.973   5.975 -0.0205 -0.2168  0.5540
   38U     HO'2 1205   3.613   4.032   5.902  1.0843 -0.8791  0.3021
   38U      O3' 1206   3.484   4.124   5.796  0.4244  0.1886  0.0703
   39U        P 1207   3.501   4.078   5.642 -0.0180  0.0344  0.0676
   39U      O1P 1208   3.596   4.168   5.574  0.0641  0.0296  0.1749
   39U      O2P 1209   3.366   4.083   5.582  0.1082 -0.3725 -0.2514
   39U      O5' 1210   3.555   3.927   5.653 -0.1179  0.0249  0.4500
   39U      C5' 1211   3.691   3.894   5.667  0.0272  0.4598  0.0755
   39U     H5'1 1212   3.728   3.960   5.745 -0.5479 -0.3544  1.0656
   39U     H5'2 1213   3.750   3.921   5.579  0.4243 -2.7971 -0.7839
   39U      C4' 1214   3.714   3.746   5.697 -0.0466  0.3809 -0.2507
   39U      H4' 1215   3.819   3.730   5.722 -0.1989  1.3931  1.1782
   39U      O4' 1216   3.616   3.702   5.789  0.0512  0.1568 -0.2551
   39U      C1' 1217   3.565   3.575   5.753  0.4824 -0.2156  0.4191
   39U      H1' 1218   3.595   3.514   5.838 -1.1764 -0.6211  0.7579
   39U       N1 1219   3.418   3.567   5.745  0.4548  0.4402  0.1748
   39U       C6 1220   3.339   3.678   5.733  0.1388  0.2138  0.1489
   39U       H6 1221   3.379   3.768   5.690 -2.3179 -0.0711 -3.0785
   39U       C5 1222   3.206   3.673   5.759  0.0836  0.6145 -0.0567
   39U       H5 1223   3.145   3.762   5.749  1.5858  1.8839  1.3585
   39U       C4 1224   3.141   3.548   5.791  0.1847  0.5171 -0.2293
   39U       O4 1225   3.021   3.527   5.804  0.4352 -0.3248  0.8005
   39U       N3 1226   3.230   3.442   5.805 -0.0262  0.3720  0.0072
   39U       H3 1227   3.185   3.354   5.825 -1.0136  1.0973  1.1820
   39U       C2 1228   3.366   3.443   5.778  0.1335  0.7352  0.7955
   39U       O2 1229   3.437   3.344   5.793 -0.2361  0.2278 -0.7135
   39U      C3' 1230   3.682   3.662   5.574 -0.0497  0.1735 -0.1091
   39U      H3' 1231   3.606   3.712   5.514 -0.6091 -0.3077  0.1912
   39U      C2' 1232   3.629   3.528   5.623  0.2798  0.1480  0.1851
   39U     H2'1 1233   3.554   3.488   5.555 -0.4521  1.3363  0.2651
   39U      O2' 1234   3.737   3.444   5.657 -0.0831 -0.4102 -0.0130
   39U     HO'2 1235   3.732   3.366   5.602  1.9381 -0.3877 -0.3369
   39U      O3' 1236   3.797   3.641   5.495 -0.0056 -0.5583  0.1404
   40C        P 1237   3.791   3.591   5.342 -0.4855  0.1494 -0.0797
   40C      O1P 1238   3.933   3.594   5.297 -0.5037 -0.0364 -0.1513
   40C      O2P 1239   3.702   3.686   5.272 -0.9407  0.0644  0.3861
   40C      O5' 1240   3.742   3.438   5.326 -0.0811  0.0639 -0.5263
   40C      C5' 1241   3.820   3.328   5.367 -0.2887  0.2087  0.2701
   40C     H5'1 1242   3.874   3.352   5.459 -0.7809 -0.0506  0.6299
   40C     H5'2 1243   3.889   3.317   5.284 -2.2763 -0.8115 -1.3326
   40C      C4' 1244   3.739   3.204   5.403  0.1727 -0.1725  0.0055
   40C      H4' 1245   3.801   3.125   5.444  0.1303  0.2666  0.9439
   40C      O4' 1246   3.636   3.241   5.492  0.2510 -0.0023  0.0244
   40C      C1' 1247   3.522   3.160   5.474  0.2673 -0.1405  0.5395
   40C      H1' 1248   3.516   3.107   5.569 -1.8571  0.4568  0.7832
   40C       N1 1249   3.397   3.234   5.452  0.2265 -0.2433  0.4281
   40C       C6 1250   3.398   3.351   5.382  0.3659 -0.3428  0.2658
   40C       H6 1251   3.486   3.368   5.321 -0.1965 -1.0000 -0.7613
   40C       C5 1252   3.296   3.437   5.397  0.2030 -0.4116 -0.4121
   40C       H5 1253   3.305   3.534   5.350  2.5851  1.1898  2.9646
   40C       C4 1254   3.176   3.386   5.458 -0.0409  0.3166 -0.2721
   40C       N4 1255   3.083   3.479   5.481  0.1704  0.4239  0.1639
   40C      H41 1256   3.083   3.571   5.439  2.1486 -0.3205 -1.5964
   40C      H42 1257   3.012   3.449   5.547  2.0776 -0.6112  1.8397
   40C       N3 1258   3.170   3.269   5.522  0.1970  0.4666  0.0267
   40C       C2 1259   3.280   3.190   5.514  0.0500  0.2155  0.4203
   40C       O2 1260   3.271   3.075   5.556  0.3886  0.0587  0.0778
   40C      C3' 1261   3.669   3.152   5.277 -0.1009  0.4325 -0.0942
   40C      H3' 1262   3.627   3.235   5.220 -1.6479  0.1231  0.5447
   40C      C2' 1263   3.560   3.076   5.352  0.1350  0.3462  0.1633
   40C     H2'1 1264   3.470   3.054   5.293  0.4107 -0.1145 -0.0892
   40C      O2' 1265   3.607   2.954   5.404 -0.2476  0.3103  0.4335
   40C     HO'2 1266   3.689   2.927   5.363  1.4900  0.8673  3.2535
   40C      O3' 1267   3.737   3.061   5.194 -0.0734  0.4735 -0.1164
   41C        P 1268   3.688   3.024   5.045 -0.2468 -0.0306  0.0634
   41C      O1P 1269   3.786   2.934   4.982  0.0534  0.1675  0.2473
   41C      O2P 1270   3.655   3.152   4.978 -0.9850 -0.1971  0.1012
   41C      O5' 1271   3.555   2.938   5.075 -0.3504  0.0907 -0.0432
   41C      C5' 1272   3.579   2.804   5.114 -0.1423 -0.0918 -0.7719
   41C     H5'1 1273   3.644   2.793   5.200  0.2954  0.4472 -1.0284
   41C     H5'2 1274   3.616   2.740   5.034  0.3265 -0.3501 -0.3546
   41C      C4' 1275   3.444   2.747   5.157  0.0532  0.1488  0.1832
   41C      H4' 1276   3.464   2.645   5.189 -0.7714 -0.5062 -1.3053
   41C      O4' 1277   3.377   2.824   5.255 -0.0861  0.1038  0.1235
   41C      C1' 1278   3.239   2.797   5.246 -0.0330 -0.1732  0.1387
   41C      H1' 1279   3.191   2.757   5.336 -1.9999  0.5906 -0.5340
   41C       N1 1280   3.162   2.921   5.228  0.2151 -0.0183  0.1482
   41C       C6 1281   3.225   3.037   5.192  0.4315 -0.1781  0.0135
   41C       H6 1282   3.323   3.034   5.146 -0.5861 -0.5716 -2.2378
   41C       C5 1283   3.166   3.158   5.197  0.1548 -0.3337  0.5687
   41C       H5 1284   3.212   3.253   5.177  0.6414  0.0517  3.1472
   41C       C4 1285   3.027   3.153   5.235  0.0143 -0.1505  0.0859
   41C       N4 1286   2.959   3.268   5.236  0.0706 -0.1206  0.4708
   41C      H41 1287   3.008   3.357   5.235 -1.3187  0.6688  0.5147
   41C      H42 1288   2.860   3.253   5.243 -0.1669  0.7565 -0.6371
   41C       N3 1289   2.957   3.041   5.256  0.0571 -0.0846  0.5841
   41C       C2 1290   3.029   2.926   5.263  0.3551  0.1052  0.6602
   41C       O2 1291   2.969   2.826   5.303 -0.1311  0.1394  0.0186
   41C      C3' 1292   3.342   2.734   5.044 -0.0551 -0.5763  0.3591
   41C      H3' 1293   3.329   2.834   5.002 -2.0996  0.4163  3.0710
   41C      C2' 1294   3.223   2.698   5.131 -0.0512 -0.4798  0.4049
   41C     H2'1 1295   3.138   2.731   5.072 -0.0775  0.0401  0.7272
   41C      O2' 1296   3.218   2.569   5.188 -0.1394 -0.4996  0.3519
   41C     HO'2 1297   3.136   2.566   5.239  0.0906  2.6841  1.1108
   41C      O3' 1298   3.380   2.644   4.942  0.0951 -0.0651 -0.0414
   42G        P 1299   3.292   2.647   4.807 -0.0688 -0.0275  0.0663
   42G      O1P 1300   3.334   2.534   4.722 -0.2503 -0.2347  0.2491
   42G      O2P 1301   3.285   2.787   4.761 -1.1137 -0.2152 -0.3702
   42G      O5' 1302   3.143   2.610   4.858  0.0240 -0.2359  0.1890
   42G      C5' 1303   3.107   2.482   4.904  0.0022 -0.3912 -0.2566
   42G     H5'1 1304   3.162   2.451   4.993 -1.0503  0.8200  0.8580
   42G     H5'2 1305   3.120   2.408   4.825 -0.8993  0.8329 -1.6017
   42G      C4' 1306   2.959   2.475   4.940 -0.0712 -0.0443 -0.4875
   42G      H4' 1307   2.935   2.373   4.969  1.3849 -0.4927 -0.7727
   42G      O4' 1308   2.919   2.554   5.049  0.2325 -0.2891 -0.1982
   42G      C1' 1309   2.789   2.603   5.025  0.2593 -0.1044  0.0321
   42G      H1' 1310   2.733   2.572   5.114  1.3924 -0.3382  0.6920
   42G       N9 1311   2.791   2.749   5.005  0.1645 -0.1212 -0.1030
   42G       C8 1312   2.901   2.822   4.967  0.1962 -0.1615 -0.0887
   42G       H8 1313   2.995   2.773   4.946 -0.1649 -0.9522  0.0866
   42G       N7 1314   2.878   2.949   4.955 -0.2100 -0.2340 -0.1204
   42G       C5 1315   2.743   2.961   4.984 -0.1749 -0.1340  0.0068
   42G       C6 1316   2.664   3.079   4.996  0.2013  0.0929  0.2937
   42G       O6 1317   2.698   3.197   4.991  1.0019 -0.1219  0.4654
   42G       N1 1318   2.533   3.054   5.035  0.1712 -0.0938  0.0793
   42G       H1 1319   2.477   3.132   5.065 -0.2374 -0.8689  1.4497
   42G       C2 1320   2.487   2.926   5.059 -0.1918  0.0102 -0.0589
   42G       N2 1321   2.357   2.925   5.091 -0.1616  0.4007  0.0851
   42G      H21 1322   2.297   3.006   5.088 -3.3246 -1.7857 -0.9138
   42G      H22 1323   2.324   2.841   5.135  1.1769  0.0987  0.5493
   42G       N3 1324   2.560   2.814   5.051  0.1505  0.1762  0.6884
   42G       C4 1325   2.689   2.840   5.019  0.0673 -0.2445  0.0009
   42G      C3' 1326   2.865   2.501   4.822 -0.1946 -0.1501 -0.4124
   42G      H3' 1327   2.894   2.594   4.774  2.7123 -1.2184 -0.9141
   42G      C2' 1328   2.738   2.526   4.904  0.1615 -0.3013  0.1967
   42G     H2'1 1329   2.670   2.594   4.853 -0.1019  0.1206  1.1017
   42G      O2' 1330   2.670   2.413   4.952 -0.8011  0.1585 -0.0503
   42G     HO'2 1331   2.670   2.347   4.882  0.9731  1.1085 -0.9965
   42G      O3' 1332   2.876   2.386   4.741  0.0316 -0.1529 -0.3773
   43U        P 1333   2.875   2.391   4.580  0.0468 -0.0064 -0.3735
   43U      O1P 1334   2.906   2.252   4.539  0.3703  0.1081 -0.5169
   43U      O2P 1335   2.965   2.500   4.536  0.0947  0.1353  0.0697
   43U      O5' 1336   2.723   2.428   4.540 -0.0026  0.0087 -0.1758
   43U      C5' 1337   2.616   2.342   4.574 -0.1048  0.3529  0.3740
   43U     H5'1 1338   2.630   2.315   4.679  0.3474  3.1987  1.1360
   43U     H5'2 1339   2.607   2.257   4.507  1.2675 -0.8944  1.6965
   43U      C4' 1340   2.493   2.432   4.586 -0.0353  0.5361 -0.2714
   43U      H4' 1341   2.411   2.374   4.627 -1.3318  2.5106  0.0785
   43U      O4' 1342   2.513   2.538   4.677 -0.2669  0.3340  0.0135
   43U      C1' 1343   2.426   2.644   4.645 -0.7040 -0.0467 -0.0659
   43U      H1' 1344   2.344   2.645   4.716  1.5975 -0.3881  2.7997
   43U       N1 1345   2.496   2.774   4.650 -0.5355 -0.0782 -1.2292
   43U       C6 1346   2.625   2.782   4.608 -0.1066  0.0473  0.0689
   43U       H6 1347   2.670   2.690   4.575 -2.3996 -0.2784 -2.4552
   43U       C5 1348   2.688   2.902   4.601  0.3784 -0.1932  0.2694
   43U       H5 1349   2.792   2.913   4.573  0.0418  0.5251 -0.7580
   43U       C4 1350   2.625   3.024   4.645  0.0589 -0.1893 -0.1950
   43U       O4 1351   2.679   3.133   4.651  0.4327 -0.3857  0.0027
   43U       N3 1352   2.495   3.005   4.691  0.1783 -0.3855  0.0639
   43U       H3 1353   2.438   3.088   4.696 -1.1618 -1.3366  1.6028
   43U       C2 1354   2.423   2.887   4.682 -0.1536 -0.1849  0.0959
   43U       O2 1355   2.300   2.883   4.691 -0.2391 -0.0933 -0.8909
   43U      C3' 1356   2.457   2.500   4.454  0.4915  0.1311 -0.6320
   43U      H3' 1357   2.540   2.559   4.416 -0.5964  2.8742  0.9113
   43U      C2' 1358   2.368   2.612   4.508  0.2072 -0.1930 -0.4279
   43U     H2'1 1359   2.373   2.705   4.452  0.9326  0.6795  1.0381
   43U      O2' 1360   2.232   2.575   4.520  0.2274  0.0038  0.4299
   43U     HO'2 1361   2.189   2.640   4.463  0.9816  0.1486  0.0171
   43U      O3' 1362   2.402   2.412   4.358  0.1170 -0.3073 -0.0227
   44A        P 1363   2.397   2.465   4.206 -0.0521  0.1502  0.1408
   44A      O1P 1364   2.356   2.354   4.117  0.0186  0.1434  0.1171
   44A      O2P 1365   2.532   2.522   4.184  0.1999 -0.4200  0.1944
   44A      O5' 1366   2.289   2.584   4.212  0.0917  0.2794  0.1749
   44A      C5' 1367   2.150   2.560   4.216  0.1337  0.0237  0.0883
   44A     H5'1 1368   2.136   2.494   4.302  1.7373  1.4508  1.5146
   44A     H5'2 1369   2.107   2.521   4.123  0.9320  0.0525 -0.2968
   44A      C4' 1370   2.072   2.687   4.250 -0.0210  0.0209 -0.2503
   44A      H4' 1371   1.970   2.651   4.264  0.6359 -2.3063 -0.9274
   44A      O4' 1372   2.128   2.753   4.361 -0.5795 -0.1468  0.1305
   44A      C1' 1373   2.112   2.892   4.343  0.4977 -0.1094 -0.6439
   44A      H1' 1374   2.035   2.924   4.414 -2.7263  0.1064 -3.9482
   44A       N9 1375   2.235   2.971   4.356  0.3540 -0.0359  0.4278
   44A       C8 1376   2.362   2.929   4.324  0.3309 -0.2742  0.6453
   44A       H8 1377   2.386   2.829   4.289  2.1337  0.6734 -1.0133
   44A       N7 1378   2.450   3.023   4.344 -0.0365  0.3123 -0.4076
   44A       C5 1379   2.372   3.131   4.383 -0.1210 -0.0038  0.3000
   44A       C6 1380   2.408   3.259   4.427  0.5087 -0.3601  0.8530
   44A       N6 1381   2.533   3.302   4.447  0.6382 -0.0390 -0.5938
   44A      H61 1382   2.600   3.227   4.449  1.6198  0.6864 -2.5674
   44A      H62 1383   2.545   3.394   4.487  1.6954  0.5803 -2.2353
   44A       N1 1384   2.312   3.349   4.457  0.1429 -0.4248 -0.0822
   44A       C2 1385   2.186   3.314   4.440 -0.0054  0.2876 -0.4622
   44A       H2 1386   2.114   3.383   4.481 -0.8761 -0.2854 -0.9790
   44A       N3 1387   2.139   3.195   4.405  0.0087  0.0619  0.2641
   44A       C4 1388   2.237   3.107   4.376 -0.1101  0.0614 -0.1464
   44A      C3' 1389   2.063   2.786   4.134 -0.0309  0.1793 -0.1145
   44A      H3' 1390   2.160   2.796   4.086 -0.1606  2.1070 -0.0451
   44A      C2' 1391   2.030   2.910   4.216 -0.3548  0.0701 -0.0796
   44A     H2'1 1392   2.064   2.999   4.164 -2.2953 -0.3357 -2.1987
   44A      O2' 1393   1.891   2.913   4.242 -0.4045 -0.2443 -0.3044
   44A     HO'2 1394   1.850   2.861   4.172 -0.6217  0.5648 -0.7846
   44A      O3' 1395   1.960   2.757   4.042 -0.6178  0.2915  0.4959
   45G        P 1396   1.961   2.821   3.894 -0.0680 -0.1672  0.2935
   45G      O1P 1397   1.830   2.790   3.831 -0.0103 -0.1821  0.1807
   45G      O2P 1398   2.085   2.776   3.828 -0.0104 -0.3156  0.5049
   45G      O5' 1399   1.972   2.981   3.911 -0.1771 -0.1135 -0.1147
   45G      C5' 1400   1.851   3.046   3.940  0.0651  0.2681  0.0610
   45G     H5'1 1401   1.794   2.991   4.015  2.2547 -2.5978 -0.2014
   45G     H5'2 1402   1.790   3.054   3.850  1.3212 -0.4280 -0.8829
   45G      C4' 1403   1.874   3.191   3.983  0.0429  0.2192  0.2361
   45G      H4' 1404   1.774   3.234   3.992  0.5986  1.9172 -1.3221
   45G      O4' 1405   1.949   3.197   4.102  0.1622  0.0686  0.1686
   45G      C1' 1406   2.025   3.316   4.097 -0.0799  0.2190  0.0892
   45G      H1' 1407   1.994   3.383   4.178  2.1594 -1.3206  2.3696
   45G       N9 1408   2.171   3.303   4.110 -0.1438 -0.1025  0.5124
   45G       C8 1409   2.257   3.207   4.064 -0.0732  0.2854 -0.1693
   45G       H8 1410   2.211   3.125   4.010  0.3410  0.3611 -0.6461
   45G       N7 1411   2.385   3.218   4.084 -0.1014 -0.0740  0.2067
   45G       C5 1412   2.389   3.345   4.140 -0.0201 -0.1374  0.3453
   45G       C6 1413   2.495   3.438   4.157 -0.0673  0.0037 -0.1157
   45G       O6 1414   2.613   3.405   4.154  0.0151  0.3144 -0.3389
   45G       N1 1415   2.460   3.567   4.196  0.2408 -0.0321  0.2825
   45G       H1 1416   2.533   3.634   4.214 -1.3922  2.0190 -0.3462
   45G       C2 1417   2.331   3.614   4.181  0.3667  0.1183 -0.3535
   45G       N2 1418   2.313   3.745   4.204  0.1822  0.0732 -0.2369
   45G      H21 1419   2.389   3.805   4.232 -1.6379  1.8756  1.1115
   45G      H22 1420   2.216   3.773   4.202  0.0045 -0.4211  0.8458
   45G       N3 1421   2.231   3.532   4.144  0.4279  0.0084 -0.2757
   45G       C4 1422   2.265   3.401   4.133 -0.0964 -0.2386  0.9091
   45G      C3' 1423   1.945   3.267   3.872  0.1362 -0.1773  0.0208
   45G      H3' 1424   2.021   3.197   3.835  0.1342 -0.5744  0.7552
   45G      C2' 1425   2.003   3.378   3.959 -0.1424 -0.0104 -0.0045
   45G     H2'1 1426   2.096   3.410   3.911 -0.0276 -0.0896  0.1613
   45G      O2' 1427   1.905   3.476   3.983 -0.0216  0.0535  0.2264
   45G     HO'2 1428   1.839   3.492   3.916 -1.2174  2.8488  1.8468
   45G      O3' 1429   1.854   3.314   3.775 -0.0443  0.4198  0.4684
   46A        P 1430   1.915   3.365   3.635 -0.2403 -0.0061  0.2264
   46A      O1P 1431   1.802   3.382   3.541 -0.1718 -1.2337 -0.1085
   46A      O2P 1432   2.025   3.274   3.594 -0.2799 -0.0128  0.1329
   46A      O5' 1433   1.981   3.510   3.655  0.2285 -0.1429 -0.2962
   46A      C5' 1434   1.903   3.623   3.685  0.4348 -0.1216  0.1795
   46A     H5'1 1435   1.841   3.598   3.771  1.8577 -0.7968  1.0327
   46A     H5'2 1436   1.843   3.657   3.600  0.1774  0.2179  0.4932
   46A      C4' 1437   1.997   3.734   3.730  0.1380  0.2046  0.0088
   46A      H4' 1438   1.932   3.817   3.757 -2.1118 -1.3202 -0.5152
   46A      O4' 1439   2.069   3.699   3.847 -0.1258  0.4697  0.2519
   46A      C1' 1440   2.196   3.759   3.854 -0.1066  0.4346  0.2061
   46A      H1' 1441   2.219   3.827   3.935  1.8124  0.2827 -0.1634
   46A       N9 1442   2.305   3.660   3.844 -0.4304  0.0369  0.5560
   46A       C8 1443   2.301   3.533   3.792 -0.0506  0.1080  0.3508
   46A       H8 1444   2.210   3.488   3.756  0.4838 -0.3642 -0.4413
   46A       N7 1445   2.420   3.479   3.780  0.2703  0.9046 -0.1205
   46A       C5 1446   2.506   3.577   3.829  0.3187  0.6226  0.3609
   46A       C6 1447   2.645   3.577   3.850  0.5026  0.2674 -0.7571
   46A       N6 1448   2.724   3.470   3.841 -0.2033 -0.2943 -0.4655
   46A      H61 1449   2.686   3.379   3.818 -1.2037 -0.0424  0.1698
   46A      H62 1450   2.818   3.476   3.879 -0.6154 -1.6520  0.8874
   46A       N1 1451   2.694   3.684   3.913 -0.0662  0.4375 -0.5949
   46A       C2 1452   2.615   3.782   3.954  0.2392  0.6292 -0.4580
   46A       H2 1453   2.665   3.854   4.017  4.0760 -0.8843 -1.5106
   46A       N3 1454   2.484   3.796   3.938  0.1835  0.2937 -0.3071
   46A       C4 1455   2.437   3.686   3.874 -0.3496  0.3955 -0.0932
   46A      C3' 1456   2.110   3.774   3.636 -0.1195  0.2399 -0.2828
   46A      H3' 1457   2.160   3.688   3.592 -1.0874  0.4118 -1.8032
   46A      C2' 1458   2.207   3.845   3.729 -0.1889  0.0538 -0.0680
   46A     H2'1 1459   2.312   3.854   3.701  0.3550 -0.0434  1.8294
   46A      O2' 1460   2.159   3.973   3.766  0.1697  0.2835 -0.3855
   46A     HO'2 1461   2.226   4.041   3.775 -1.2788  1.4345  2.9952
   46A      O3' 1462   2.058   3.851   3.529 -0.3847 -0.0296 -0.3505
   47G        P 1463   2.136   3.874   3.390 -0.1083  0.2901 -0.1465
   47G      O1P 1464   2.050   3.954   3.299 -0.3240  0.0283 -0.1748
   47G      O2P 1465   2.172   3.737   3.347 -0.7722  0.1357 -0.2312
   47G      O5' 1466   2.271   3.956   3.419  0.0524  0.0926 -0.3308
   47G      C5' 1467   2.254   4.090   3.459  0.3454  0.1848 -0.5159
   47G     H5'1 1468   2.172   4.089   3.530  1.5822  2.0712  1.0670
   47G     H5'2 1469   2.227   4.162   3.382 -0.3971  2.9045  2.0891
   47G      C4' 1470   2.374   4.147   3.535  0.5651 -0.4181 -0.4029
   47G      H4' 1471   2.331   4.233   3.586  0.7919  0.3198 -1.4108
   47G      O4' 1472   2.423   4.069   3.642  0.0278  0.1281  0.2511
   47G      C1' 1473   2.563   4.075   3.649  0.0578  0.2158 -0.3803
   47G      H1' 1474   2.599   4.093   3.750 -1.5460 -2.2928  0.7244
   47G       N9 1475   2.620   3.949   3.598  0.1553  0.0917  0.0388
   47G       C8 1476   2.563   3.835   3.547  0.2906  0.0269  0.0321
   47G       H8 1477   2.464   3.832   3.504  0.2874  1.1664 -0.0516
   47G       N7 1478   2.637   3.727   3.545 -0.1148 -0.2525  0.0265
   47G       C5 1479   2.755   3.771   3.603  0.0375 -0.4506 -0.1347
   47G       C6 1480   2.877   3.701   3.625  0.1472 -0.2594 -0.1341
   47G       O6 1481   2.922   3.591   3.593 -0.3807 -0.4358 -0.2817
   47G       N1 1482   2.967   3.777   3.699  0.1403  0.0838 -0.4713
   47G       H1 1483   3.058   3.733   3.704 -1.4633 -3.6184 -0.4229
   47G       C2 1484   2.945   3.908   3.737  0.0397 -0.0486 -0.0647
   47G       N2 1485   3.049   3.982   3.779  0.2898 -0.3053 -0.2253
   47G      H21 1486   3.133   3.939   3.814  1.5755  1.9246 -0.4433
   47G      H22 1487   3.037   4.078   3.808  0.0070 -0.0178 -1.2529
   47G       N3 1488   2.834   3.976   3.705 -0.1753 -0.3140  0.1103
   47G       C4 1489   2.739   3.900   3.646  0.1796 -0.3278 -0.4472
   47G      C3' 1490   2.492   4.193   3.449  0.2115  0.2863 -0.5263
   47G      H3' 1491   2.503   4.117   3.371  0.7444 -1.2996  1.0138
   47G      C2' 1492   2.598   4.194   3.559  0.3894 -0.1157 -0.6926
   47G     H2'1 1493   2.695   4.168   3.515 -0.4441  0.6224 -3.1171
   47G      O2' 1494   2.608   4.314   3.632 -0.0657 -0.4633 -0.0475
   47G     HO'2 1495   2.555   4.381   3.589 -0.6622  0.3392  1.8464
   47G      O3' 1496   2.475   4.323   3.398 -0.2078  0.4201 -0.0582
   48U        P 1497   2.567   4.364   3.272 -0.0870 -0.1413 -0.1570
   48U      O1P 1498   2.530   4.505   3.247 -0.4330 -0.1289  0.4024
   48U      O2P 1499   2.555   4.262   3.166  0.4645 -0.6148  0.2257
   48U      O5' 1500   2.723   4.361   3.311 -0.0020 -0.1072 -0.4949
   48U      C5' 1501   2.797   4.462   3.376 -0.1585 -0.1350 -0.2747
   48U     H5'1 1502   2.760   4.475   3.478 -0.6394 -1.2315 -0.2923
   48U     H5'2 1503   2.800   4.553   3.317 -2.9154  0.7286  0.7560
   48U      C4' 1504   2.932   4.406   3.418 -0.5117 -0.6031  0.2551
   48U      H4' 1505   2.995   4.469   3.481  2.7917 -2.7419 -0.6534
   48U      O4' 1506   2.921   4.276   3.471 -0.0819 -0.6329  0.2747
   48U      C1' 1507   3.042   4.207   3.445 -0.0969 -0.4354 -0.3241
   48U      H1' 1508   3.108   4.202   3.531 -1.7304  1.9572  1.1976
   48U       N1 1509   3.018   4.072   3.391 -0.0616 -0.4218 -0.3768
   48U       C6 1510   2.899   4.032   3.337 -0.2314 -0.3096 -0.0854
   48U       H6 1511   2.817   4.100   3.318 -1.9624 -2.0140  0.8521
   48U       C5 1512   2.870   3.904   3.305 -0.5771 -0.3726  0.4561
   48U       H5 1513   2.772   3.876   3.269 -0.8808 -0.0268  0.9912
   48U       C4 1514   2.970   3.801   3.318 -0.0773 -0.0174 -0.4516
   48U       O4 1515   2.961   3.684   3.280 -0.1362  0.1048 -0.8182
   48U       N3 1516   3.087   3.847   3.376 -0.2028 -0.1665 -0.0770
   48U       H3 1517   3.159   3.778   3.391  0.1006  0.1828  0.0888
   48U       C2 1518   3.116   3.977   3.414 -0.1414 -0.3198  0.4158
   48U       O2 1519   3.222   4.003   3.470 -0.1559  0.4084  0.1270
   48U      C3' 1520   3.008   4.384   3.288 -0.3181 -0.2007  0.2997
   48U      H3' 1521   2.943   4.330   3.220 -1.1342 -0.3259  1.1742
   48U      C2' 1522   3.114   4.285   3.335  0.0163  0.0511  0.0916
   48U     H2'1 1523   3.131   4.219   3.250  0.1598 -0.4988  0.5344
   48U      O2' 1524   3.227   4.356   3.380 -0.0143  0.1508  0.0099
   48U     HO'2 1525   3.237   4.434   3.326  0.5486 -1.1898 -1.9448
   48U      O3' 1526   3.057   4.502   3.228  0.1786 -0.4791  0.1467
   49C        P 1527   3.074   4.513   3.068 -0.1601  0.1264  0.1484
   49C      O1P 1528   3.127   4.646   3.032  0.1015 -0.0141  0.0166
   49C      O2P 1529   2.950   4.466   3.002 -0.1651 -0.3006  0.4557
   49C      O5' 1530   3.184   4.399   3.040 -0.2178 -0.1188  0.9041
   49C      C5' 1531   3.320   4.425   3.065 -0.0859  0.1753 -0.0922
   49C     H5'1 1532   3.339   4.471   3.162  0.6013  0.0636 -0.1677
   49C     H5'2 1533   3.356   4.504   2.999 -0.0441  1.6041  1.5647
   49C      C4' 1534   3.405   4.300   3.044  0.1863  0.2269  0.6747
   49C      H4' 1535   3.507   4.318   3.077 -0.5265  0.4431  2.8938
   49C      O4' 1536   3.356   4.188   3.114  0.4383 -0.5865 -0.4176
   49C      C1' 1537   3.417   4.072   3.061  0.5699 -0.8085  0.2099
   49C      H1' 1538   3.505   4.052   3.122  0.7073 -0.8957 -0.0171
   49C       N1 1539   3.329   3.956   3.042 -0.4662  0.0057 -0.0738
   49C       C6 1540   3.194   3.974   3.037 -0.4181  0.4094  0.0955
   49C       H6 1541   3.153   4.074   3.033  0.3036  0.6923 -0.7457
   49C       C5 1542   3.112   3.868   3.028  0.1171 -0.0222  0.2531
   49C       H5 1543   3.006   3.887   3.026  0.0950  0.0792  1.6731
   49C       C4 1544   3.175   3.739   3.029  0.3553  0.0891 -0.1688
   49C       N4 1545   3.094   3.633   3.022  0.2369  0.1789 -0.1496
   49C      H41 1546   2.994   3.643   3.028  0.3323  0.7570  0.7133
   49C      H42 1547   3.136   3.542   3.008  3.1963  1.6627 -1.7205
   49C       N3 1548   3.308   3.719   3.033  0.3365  0.0924  0.7746
   49C       C2 1549   3.386   3.830   3.044  0.1695  0.2900  0.0580
   49C       O2 1550   3.507   3.812   3.042  0.1828  0.4417 -0.4816
   49C      C3' 1551   3.406   4.250   2.900  0.3711 -0.0859  0.7838
   49C      H3' 1552   3.303   4.244   2.867  1.0419  0.7684 -1.7590
   49C      C2' 1553   3.463   4.110   2.920 -0.2799 -0.4668  0.0213
   49C     H2'1 1554   3.422   4.037   2.849 -1.3792 -0.6074  0.7618
   49C      O2' 1555   3.603   4.100   2.929 -0.2349  0.1486  0.0452
   49C     HO'2 1556   3.638   4.078   2.842  0.2113  1.1588 -0.0398
   49C      O3' 1557   3.473   4.340   2.814 -0.4070 -0.1648  0.0866
   50G        P 1558   3.451   4.324   2.655 -0.3163 -0.1800  0.0754
   50G      O1P 1559   3.529   4.437   2.600 -0.7519 -0.0889 -0.3565
   50G      O2P 1560   3.307   4.320   2.621 -0.2166 -0.6133 -0.3119
   50G      O5' 1561   3.512   4.182   2.610  0.5447 -0.0088  0.6785
   50G      C5' 1562   3.646   4.173   2.567  0.2544 -0.0317 -0.2499
   50G     H5'1 1563   3.712   4.228   2.635  0.9875  1.0346 -1.7794
   50G     H5'2 1564   3.658   4.224   2.472  0.1935 -2.0209 -1.3722
   50G      C4' 1565   3.693   4.029   2.553 -0.0448 -0.1349 -0.1947
   50G      H4' 1566   3.801   4.017   2.543 -0.0920  0.1107 -1.0675
   50G      O4' 1567   3.649   3.952   2.663 -0.2595 -0.4041 -0.4671
   50G      C1' 1568   3.628   3.821   2.616 -0.0277 -0.7113  0.2656
   50G      H1' 1569   3.704   3.754   2.655 -0.4763  0.2133  2.9654
   50G       N9 1570   3.494   3.775   2.658 -0.3680 -0.0879 -0.1159
   50G       C8 1571   3.377   3.846   2.660 -0.1860  0.2140 -0.0313
   50G       H8 1572   3.368   3.950   2.632  0.0710  0.0007 -0.9474
   50G       N7 1573   3.277   3.774   2.703  0.0757  0.0894  0.3825
   50G       C5 1574   3.330   3.647   2.725 -0.0020 -0.0203 -0.0444
   50G       C6 1575   3.269   3.523   2.759 -0.2936  0.2822  0.5680
   50G       O6 1576   3.148   3.510   2.772 -0.3968 -0.2714 -0.7843
   50G       N1 1577   3.356   3.415   2.763 -0.0249  0.4471 -0.4458
   50G       H1 1578   3.314   3.326   2.784  0.4955  0.5408  1.1003
   50G       C2 1579   3.489   3.423   2.727  0.2134 -0.0982  0.2914
   50G       N2 1580   3.568   3.315   2.725  0.0251 -0.2311 -0.1249
   50G      H21 1581   3.518   3.227   2.725 -2.7675  1.2369  0.9437
   50G      H22 1582   3.661   3.335   2.690 -0.0473  2.6588  1.0538
   50G       N3 1583   3.547   3.540   2.697  0.2144 -0.0033  0.6552
   50G       C4 1584   3.464   3.647   2.697 -0.0223 -0.1784 -0.1391
   50G      C3' 1585   3.619   3.970   2.434  0.1384 -0.1097 -0.3206
   50G      H3' 1586   3.513   3.996   2.427  0.3846  1.1928  0.5662
   50G      C2' 1587   3.625   3.821   2.463 -0.2996 -0.0146  0.2659
   50G     H2'1 1588   3.539   3.766   2.425 -0.6906  0.7879 -0.0384
   50G      O2' 1589   3.745   3.760   2.421 -0.2889 -0.1034  0.4232
   50G     HO'2 1590   3.753   3.784   2.328 -1.1874  1.4694  0.7182
   50G      O3' 1591   3.667   4.008   2.306  0.0590  0.3877 -0.2069
   50G      H3T 1592   3.583   4.014   2.259 -1.7702 -1.2285  2.5441
   51SOL     OW 1593   7.811   2.713   0.679 -0.4177 -0.4256 -0.6959
   51SOL    HW1 1594   7.795   2.805   0.699  0.1848 -0.3602 -0.5076
   51SOL    HW2 1595   7.788   2.666   0.759  0.7451 -0.2883 -0.2721
   52SOL     OW 1596   5.700   7.887   8.623  0.1016  0.0660 -0.4733
   52SOL    HW1 1597   5.782   7.936   8.611 -0.1356  0.1822 -1.6961
   52SOL    HW2 1598   5.631   7.949   8.601 -0.2567 -0.4314 -0.7732
   53SOL     OW 1599   1.252   4.735   7.441 -0.4751 -0.3860  0.0795
   53SOL    HW1 1600   1.306   4.804   7.481  0.6684 -1.3591  0.2518
   53SOL    HW2 1601   1.298   4.654   7.460 -1.4986 -1.1641 -0.6354
   54SOL     OW 1602   6.800   7.231   6.043 -0.6799  0.0017  0.0094
   54SOL    HW1 1603   6.875   7.278   6.007  1.6723 -3.0055  0.5976
   54SOL    HW2 1604   6.736   7.230   5.972  0.9742  0.2845 -1.5437
   55SOL     OW 1605   5.523   5.797  10.430  0.5293  0.2008  0.2574
   55SOL    HW1 1606   5.514   5.844  10.512  3.4537  3.1505 -0.8952
   55SOL    HW2 1607   5.582   5.725  10.450  0.7844  0.5673  0.8481
   56SOL     OW 1608   6.195   1.860   7.962  0.5333  0.1873  0.1728
   56SOL    HW1 1609   6.223   1.907   8.040 -1.0770 -0.2226  1.0563
   56SOL    HW2 1610   6.238   1.775   7.969 -0.7584 -0.4040  1.4583
   57SOL     OW 1611   4.147   3.877   7.846  0.1761 -0.3324 -0.0543
   57SOL    HW1 1612   4.139   3.820   7.922  0.6169  0.0568  0.2839
   57SOL    HW2 1613   4.057   3.887   7.814  0.0653 -1.0139  0.0244
   58SOL     OW 1614   2.133   6.655  12.146 -0.0101 -0.0481 -0.2778
   58SOL    HW1 1615   2.062   6.601  12.180  1.4265 -2.2370 -0.5944
   58SOL    HW2 1616   2.208   6.636  12.203  1.0034  0.2885 -1.4517
   59SOL     OW 1617   5.497   3.796   8.432 -0.2451 -0.2540  0.3730
   59SOL    HW1 1618   5.554   3.732   8.474  0.5339 -0.8683 -1.5021
   59SOL    HW2 1619   5.416   3.749   8.414 -0.3437 -0.1741  0.6013
   60SOL     OW 1620   1.779   0.039   5.443 -0.3622 -0.4870 -0.2338
   60SOL    HW1 1621   1.769   0.130   5.414 -0.7446 -0.7370 -0.9176
   60SOL    HW2 1622   1.747  -0.013   5.369 -0.3202 -1.1756  0.2253
   61SOL     OW 1623   1.979   6.716   0.718  0.6514 -0.1076  0.6405
   61SOL    HW1 1624   1.895   6.692   0.757 -0.4023  2.0051 -0.1334
   61SOL    HW2 1625   1.963   6.713   0.623  1.6605 -0.2955  0.4596
   62SOL     OW 1626   0.603   7.843   2.847 -0.0792 -0.5514  0.1052
   62SOL    HW1 1627   0.587   7.785   2.921 -2.7178 -0.2061 -0.0813
   62SOL    HW2 1628   0.535   7.910   2.854 -0.1576 -0.2702 -2.3680
   63SOL     OW 1629   1.538   0.294   6.990 -0.3149  0.1414  0.0855
   63SOL    HW1 1630   1.542   0.232   6.917  0.3887  0.0766  0.1769
   63SOL    HW2 1631   1.475   0.360   6.960 -2.1026 -1.2729  0.5258
   64SOL     OW 1632   3.434   2.955   1.676  0.6374 -0.0610 -0.1469
   64SOL    HW1 1633   3.479   2.874   1.655  0.0809 -0.2371 -0.6541
   64SOL    HW2 1634   3.404   2.990   1.592  0.7404  0.5951  0.0770
   65SOL     OW 1635   0.440   4.488   5.864  0.3735 -0.7458 -0.0295
   65SOL    HW1 1636   0.369   4.439   5.822 -1.5306  1.9142 -0.1947
   65SOL    HW2 1637   0.513   4.426   5.868 -0.9725 -2.7076 -2.5928
   66SOL     OW 1638   1.121   3.287   9.513 -0.1974  0.0286  0.0990
   66SOL    HW1 1639   1.160   3.368   9.481  2.1701 -1.1607 -0.1966
   66SOL    HW2 1640   1.050   3.269   9.451  0.1972  1.0904 -0.6957
   67SOL     OW 1641   2.642   2.216   6.463 -0.3931  0.1748  0.0079
   67SOL    HW1 1642   2.716   2.272   6.439 -0.9797  2.4248  2.7913
   67SOL    HW2 1643   2.681   2.130   6.476  2.0069  1.3794  1.9064
   68SOL     OW 1644   2.419   5.294   7.880  0.1758 -0.0186  0.6262
   68SOL    HW1 1645   2.392   5.229   7.816  1.0175  0.7869 -0.5906
   68SOL    HW2 1646   2.497   5.334   7.843 -1.4478  3.1613  0.2629
   69SOL     OW 1647   7.090   5.905   6.355 -0.0324  0.2647 -0.5571
   69SOL    HW1 1648   7.025   5.870   6.295 -0.2336 -0.7963  0.2487
   69SOL    HW2 1649   7.088   6.000   6.341 -1.6414  0.2440 -0.6442
   70SOL     OW 1650   0.115   6.164   2.956  0.5851 -0.0224 -0.2998
   70SOL    HW1 1651   0.146   6.193   2.871  0.3447 -0.8835 -0.6966
   70SOL    HW2 1652   0.129   6.069   2.955  0.0231 -0.1192  0.3877
   71SOL     OW 1653   4.767   5.021  12.271 -0.6723  0.6185  0.1545
   71SOL    HW1 1654   4.694   4.995  12.215  0.1250  0.4158 -0.8091
   71SOL    HW2 1655   4.759   4.966  12.349  0.0632 -1.4412 -1.1566
   72SOL     OW 1656   3.443   1.729   3.336 -0.0939 -0.3971 -0.1805
   72SOL    HW1 1657   3.465   1.674   3.411  0.3565 -0.4585 -0.3558
   72SOL    HW2 1658   3.507   1.706   3.269 -1.0615 -0.9942 -0.9133
   73SOL     OW 1659   6.312   4.010   5.004 -0.4014  0.1419 -0.6721
   73SOL    HW1 1660   6.330   3.939   5.065 -1.8356  0.2872 -0.0328
   73SOL    HW2 1661   6.375   4.078   5.026 -0.4023 -0.1109  0.1412
   74SOL     OW 1662   2.415   2.569   4.999  0.2066 -1.4181 -0.1444
   74SOL    HW1 1663   2.437   2.661   4.989  1.0675 -1.4737  1.0262
   74SOL    HW2 1664   2.497   2.522   4.984 -0.4981 -2.1331 -2.1281
   75SOL     OW 1665   6.414   1.829   6.612  0.6539  0.4027  0.7177
   75SOL    HW1 1666   6.348   1.770   6.647  0.5096  1.0018  1.4939
   75SOL    HW2 1667   6.491   1.774   6.598  0.2180 -0.1518  0.5005
   76SOL     OW 1668   0.071   0.452   7.645 -0.3607 -0.1042 -0.1326
   76SOL    HW1 1669   0.069   0.416   7.556 -0.0734 -0.7479  0.1183
   76SOL    HW2 1670   0.154   0.422   7.681 -0.5525  0.0145  0.4142
   77SOL     OW 1671   5.678   5.178  12.440 -0.2777 -0.1583  0.6103
   77SOL    HW1 1672   5.601   5.123  12.425 -1.3489  1.6482 -0.9854
   77SOL    HW2 1673   5.752   5.123  12.413 -0.9742 -1.7926  1.8140
   78SOL     OW 1674   2.798   7.155  11.642  0.0994 -0.1635  0.4819
   78SOL    HW1 1675   2.864   7.132  11.576 -0.4622 -1.6479  0.3878
   78SOL    HW2 1676   2.837   7.127  11.725  0.8521  1.8061  0.8323
   79SOL     OW 1677   0.292   3.216   5.292 -0.2853 -0.4350  0.2314
   79SOL    HW1 1678   0.362   3.274   5.322  0.6569 -1.5314  0.1854
   79SOL    HW2 1679   0.241   3.198   5.371 -0.4621  0.2577  0.2899
   80SOL     OW 1680   3.112   5.724  11.366 -0.0312  0.7805  0.2807
   80SOL    HW1 1681   3.176   5.719  11.437  0.1660  0.3671  0.0771
   80SOL    HW2 1682   3.044   5.782  11.400  0.8953  2.0131  0.1503
   81SOL     OW 1683   2.401   6.015   4.899  0.6558 -0.4583 -0.1267
   81SOL    HW1 1684   2.409   5.924   4.869  0.9279 -0.1264 -1.0840
   81SOL    HW2 1685   2.379   6.065   4.821 -0.4018  0.1876  0.5569
   82SOL     OW 1686   3.885   1.280   7.763  0.4087  0.0979  0.2850
   82SOL    HW1 1687   3.963   1.230   7.787  1.4697  1.4715 -0.1484
   82SOL    HW2 1688   3.815   1.241   7.816  1.2907 -1.4208  0.4017
   83SOL     OW 1689   4.014   4.400   3.552 -0.3550  0.0165 -0.4551
   83SOL    HW1 1690   3.961   4.373   3.477 -1.2738  1.3602 -0.3246
   83SOL    HW2 1691   4.052   4.318   3.585 -1.2266 -0.8018 -1.3990
   84SOL     OW 1692   2.687   0.828   4.295 -0.1259 -0.3464 -0.0615
   84SOL    HW1 1693   2.776   0.861   4.302 -0.2178 -0.2831  1.1498
   84SOL    HW2 1694   2.644   0.886   4.233  0.2331  0.6497  0.6013
   85SOL     OW 1695   0.985   7.371  12.287 -0.4796 -0.3187 -0.0403
   85SOL    HW1 1696   1.051   7.400  12.351 -0.4795 -0.4537  0.0215
   85SOL    HW2 1697   0.901   7.395  12.327 -0.4770 -0.3471 -0.0176
   86SOL     OW 1698   0.780   0.072  12.375 -0.8355 -0.3364  0.0518
   86SOL    HW1 1699   0.801   0.056  12.283  0.9502 -2.1935  0.7060
   86SOL    HW2 1700   0.810   0.162  12.390  1.4928 -0.9342 -0.5522
   87SOL     OW 1701   1.536   5.435   0.371 -0.3848 -0.2856 -0.2145
   87SOL    HW1 1702   1.607   5.374   0.352  0.2838  0.8281 -1.3909
   87SOL    HW2 1703   1.504   5.408   0.458  0.4762 -1.7221 -0.3129
   88SOL     OW 1704   5.709   7.150  11.060 -0.1369 -0.5436 -0.1166
   88SOL    HW1 1705   5.789   7.104  11.035 -0.7044 -1.6076 -0.0371
   88SOL    HW2 1706   5.697   7.127  11.153  0.0446  0.4984  0.1802
   89SOL     OW 1707   1.842   4.695   7.161 -0.0768 -0.1324 -0.0535
   89SOL    HW1 1708   1.819   4.657   7.245 -0.7264  0.4078  0.0217
   89SOL    HW2 1709   1.844   4.621   7.100  0.8332 -0.5914  0.5135
   90SOL     OW 1710   4.454   5.250  10.522  0.5578  0.0994 -0.1238
   90SOL    HW1 1711   4.450   5.345  10.514 -2.3343  0.0360 -0.3848
   90SOL    HW2 1712   4.368   5.225  10.557  0.6548 -2.5497 -1.5512
   91SOL     OW 1713   3.751   6.676  11.040 -0.8166  0.0589  0.0971
   91SOL    HW1 1714   3.701   6.740  10.990  1.1746 -0.1969 -2.4333
   91SOL    HW2 1715   3.699   6.596  11.035 -1.3156  0.4079 -0.3735
   92SOL     OW 1716   4.033   7.148   3.883 -0.7358  0.3477  0.0454
   92SOL    HW1 1717   4.096   7.115   3.818  1.7845  1.9511  1.4907
   92SOL    HW2 1718   4.030   7.079   3.950 -3.6617 -1.5018 -1.7759
   93SOL     OW 1719   6.608   3.136  11.692 -0.4294  0.5308 -0.1055
   93SOL    HW1 1720   6.584   3.178  11.609 -0.0451  2.4679  0.7013
   93SOL    HW2 1721   6.528   3.093  11.722 -0.3633 -0.9061 -1.8386
   94SOL     OW 1722   4.636   5.527   1.370  0.1973  0.4608 -0.3615
   94SOL    HW1 1723   4.626   5.599   1.307 -1.3367  0.0426 -0.6502
   94SOL    HW2 1724   4.656   5.451   1.316  1.4074  0.5708 -0.0923
   95SOL     OW 1725   0.240   0.895   0.924 -0.3171 -0.1394 -0.3694
   95SOL    HW1 1726   0.252   0.975   0.974 -1.0737  0.7003 -1.4853
   95SOL    HW2 1727   0.300   0.903   0.850 -0.6994 -0.3933 -0.7175
   96SOL     OW 1728   1.160   6.263   0.309 -0.2182 -0.6909 -0.3623
   96SOL    HW1 1729   1.073   6.271   0.270 -0.4908  0.7347  0.4561
   96SOL    HW2 1730   1.219   6.292   0.240 -0.6242  0.8225 -0.1310
   97SOL     OW 1731   2.041   3.757   4.097 -0.1301 -0.1928 -0.8208
   97SOL    HW1 1732   2.062   3.699   4.024  0.9335 -0.4747 -0.2996
   97SOL    HW2 1733   1.945   3.753   4.104 -0.1768 -0.7815 -1.6776
   98SOL     OW 1734   7.786   5.822   6.891  0.3308 -0.0963 -0.2459
   98SOL    HW1 1735   7.726   5.869   6.833  0.2741  0.8177  0.5219
   98SOL    HW2 1736   7.766   5.730   6.877  1.6887 -0.0828 -3.1689
   99SOL     OW 1737   6.219   3.636   8.732  0.3130 -0.0623 -0.9093
   99SOL    HW1 1738   6.182   3.628   8.644 -2.4551 -1.5069  0.2705
   99SOL    HW2 1739   6.210   3.729   8.754 -0.8198 -0.0429 -1.4173
  100SOL     OW 1740   4.711   3.923   1.674 -0.0254  0.0198 -0.4041
  100SOL    HW1 1741   4.695   3.854   1.738  1.4922 -0.5655 -0.6235
  100SOL    HW2 1742   4.797   3.957   1.695  1.0415 -0.9490 -2.7506
  101SOL     OW 1743   0.876   4.878  11.123 -0.0135  0.2496  0.0417
  101SOL    HW1 1744   0.921   4.840  11.198  0.3823  1.0089  0.1910
  101SOL    HW2 1745   0.889   4.814  11.052  0.7092  0.1411  0.2646
  102SOL     OW 1746   5.418   4.367   3.448 -0.5301  0.3242 -0.1007
  102SOL    HW1 1747   5.457   4.349   3.534 -0.8439  0.1269  0.0020
  102SOL    HW2 1748   5.473   4.436   3.411  0.1719 -0.2426 -0.1365
  103SOL     OW 1749   3.034   0.035   2.571 -0.4088 -0.3605  0.4015
  103SOL    HW1 1750   3.088   0.087   2.631 -0.3020 -1.1462  1.0018
  103SOL    HW2 1751   3.084  -0.045   2.556 -0.4362 -0.1746 -0.7504
  104SOL     OW 1752   1.020   7.601   4.795 -0.2986 -0.0186  0.0982
  104SOL    HW1 1753   0.976   7.532   4.846  0.6855  0.5718  1.8157
  104SOL    HW2 1754   1.111   7.598   4.824  0.0405  1.1701 -0.7622
  105SOL     OW 1755   6.269   6.284  11.154 -0.4993 -0.4548 -0.0858
  105SOL    HW1 1756   6.177   6.307  11.158 -0.2242  0.5087  1.8483
  105SOL    HW2 1757   6.295   6.302  11.064 -1.5029  2.1197  0.0685
  106SOL     OW 1758   5.809   2.351   2.670 -0.0323 -0.2680 -0.1508
  106SOL    HW1 1759   5.805   2.256   2.665 -0.8604 -0.2856  0.5219
  106SOL    HW2 1760   5.718   2.379   2.669  0.1636  0.4511  0.5935
  107SOL     OW 1761   1.073   3.853   3.978  0.1974 -0.0366  0.5014
  107SOL    HW1 1762   1.032   3.866   3.893  0.6562  0.8073  0.3975
  107SOL    HW2 1763   1.024   3.909   4.038  0.1710 -0.2685  0.6983
  108SOL     OW 1764   6.167   7.787   7.842  0.3987 -0.1068  0.1535
  108SOL    HW1 1765   6.193   7.825   7.759 -0.0424  1.3254  0.6464
  108SOL    HW2 1766   6.153   7.862   7.900  0.3921 -1.0576  1.4286
  109SOL     OW 1767   7.095   7.813   1.528 -0.0899 -0.1268 -0.0606
  109SOL    HW1 1768   7.174   7.800   1.475  1.3249  2.1988  1.2878
  109SOL    HW2 1769   7.062   7.899   1.501 -2.2497 -1.0697 -0.6180
  110SOL     OW 1770   1.856   1.877  12.370  0.6404  0.3742  0.1103
  110SOL    HW1 1771   1.775   1.831  12.347  0.2104  1.0377  0.2767
  110SOL    HW2 1772   1.827   1.952  12.423  1.1786  1.6665 -1.3375
  111SOL     OW 1773   6.434   0.354   5.225 -0.2728 -0.2033  0.2253
  111SOL    HW1 1774   6.515   0.371   5.273 -0.5404 -1.7433  1.2553
  111SOL    HW2 1775   6.380   0.303   5.284 -1.1609 -1.0160 -1.2247
  112SOL     OW 1776   2.677   1.663   8.063 -0.5723 -0.5353 -0.1806
  112SOL    HW1 1777   2.717   1.680   7.978  0.5035  0.2034  0.4457
  112SOL    HW2 1778   2.588   1.633   8.043 -0.0598 -1.1836 -1.5792
  113SOL     OW 1779   5.638   1.293   8.436 -0.2726  0.0653  0.4849
  113SOL    HW1 1780   5.666   1.265   8.524  1.1710  0.0679  0.0537
  113SOL    HW2 1781   5.551   1.330   8.450  0.1963  0.6875  2.0506
  114SOL     OW 1782   5.674   0.692  11.975  0.2341  0.1701 -0.0129
  114SOL    HW1 1783   5.752   0.654  11.933 -0.3308 -0.0265 -0.9176
  114SOL    HW2 1784   5.688   0.787  11.971  0.2036  0.1536 -0.6424
  115SOL     OW 1785   2.647   5.893   2.960 -0.3088  0.1148  0.7553
  115SOL    HW1 1786   2.710   5.839   3.008 -0.1816  1.0738  1.6855
  115SOL    HW2 1787   2.594   5.934   3.027 -1.0603  0.3785  0.0193
  116SOL     OW 1788   3.864   5.635   9.094  0.6174 -0.2416  0.5483
  116SOL    HW1 1789   3.897   5.545   9.093  0.3516 -0.3528 -1.8473
  116SOL    HW2 1790   3.923   5.680   9.155  3.7562 -1.0328 -1.6230
  117SOL     OW 1791   2.135   7.651   5.198 -0.2479 -0.3424  0.3184
  117SOL    HW1 1792   2.117   7.656   5.292 -0.4974 -0.3239  0.2727
  117SOL    HW2 1793   2.066   7.594   5.163 -0.8912  0.6122 -0.0290
  118SOL     OW 1794   3.579   4.159   4.527 -0.1487  0.2512 -0.0170
  118SOL    HW1 1795   3.646   4.100   4.492  0.7636 -0.8005  3.1972
  118SOL    HW2 1796   3.598   4.243   4.485  0.9317 -0.8329 -1.8294
  119SOL     OW 1797   0.617   3.078   8.429 -0.1499  0.5515  0.6003
  119SOL    HW1 1798   0.588   3.168   8.435 -1.4825  0.0844  1.5984
  119SOL    HW2 1799   0.540   3.029   8.400 -0.0113 -0.5071  1.8927
  120SOL     OW 1800   5.975   5.584  10.205 -0.2414 -0.2128 -0.5018
  120SOL    HW1 1801   5.970   5.561  10.112 -0.2062 -0.7028 -0.3820
  120SOL    HW2 1802   5.952   5.504  10.251  0.4544 -0.1760 -0.0736
  121SOL     OW 1803   5.547   5.249  11.235 -0.0630 -0.4616 -0.7525
  121SOL    HW1 1804   5.470   5.216  11.189 -1.6151  2.2251 -0.2861
  121SOL    HW2 1805   5.610   5.270  11.166  0.0076 -1.9424 -1.1836
  122SOL     OW 1806   4.454   0.348   4.166  0.2095 -0.0942  0.4350
  122SOL    HW1 1807   4.511   0.319   4.237 -1.7061 -1.4840  1.4804
  122SOL    HW2 1808   4.400   0.272   4.145 -1.2833  1.1534 -0.4855
  123SOL     OW 1809   5.697   1.131   4.303 -0.2129  0.2585  0.5903
  123SOL    HW1 1810   5.668   1.155   4.392 -0.5185  0.9583  0.3043
  123SOL    HW2 1811   5.770   1.071   4.318 -0.3084  0.3039  1.3165
  124SOL     OW 1812   7.833   5.817   2.939 -0.0122 -0.1567  0.5455
  124SOL    HW1 1813   7.866   5.733   2.908 -2.8104 -1.7639  1.5930
  124SOL    HW2 1814   7.800   5.861   2.860  0.3571 -0.5524  0.1671
  125SOL     OW 1815   5.978   1.250  12.345 -0.2310  0.3299 -0.2206
  125SOL    HW1 1816   5.921   1.243  12.422 -0.5595  0.2867 -0.4656
  125SOL    HW2 1817   5.923   1.221  12.272 -0.1789  1.1293 -0.5900
  126SOL     OW 1818   4.105   3.611   2.367 -0.2319 -0.4085 -0.1975
  126SOL    HW1 1819   4.180   3.580   2.417 -0.6604  0.3632  0.9729
  126SOL    HW2 1820   4.032   3.557   2.396 -0.6997  0.7341  0.8463
  127SOL     OW 1821   4.884   2.715   5.788  0.3218  0.4370  0.5981
  127SOL    HW1 1822   4.966   2.669   5.806  0.3480  0.2648  0.0602
  127SOL    HW2 1823   4.821   2.675   5.848  0.7298  0.8971  1.3514
  128SOL     OW 1824   6.171   7.386   3.853  0.0957  0.0218  0.2558
  128SOL    HW1 1825   6.107   7.389   3.781  1.2495  1.0812 -0.7717
  128SOL    HW2 1826   6.256   7.390   3.809  0.8788 -1.1126  1.6102
  129SOL     OW 1827   2.012   4.866   1.566  0.2234 -0.4045 -0.0936
  129SOL    HW1 1828   2.021   4.953   1.603  0.2410 -1.2236  1.9673
  129SOL    HW2 1829   2.102   4.836   1.554  0.3251 -1.2466  2.1570
  130SOL     OW 1830   6.869   3.647   4.904  0.9468  0.0683 -0.1020
  130SOL    HW1 1831   6.935   3.680   4.843 -0.3300  0.8836 -1.0861
  130SOL    HW2 1832   6.795   3.623   4.849 -1.1027  2.8423  1.2251
  131SOL     OW 1833   0.418   5.534   3.572 -0.0163  0.3657 -0.3753
  131SOL    HW1 1834   0.421   5.604   3.638  0.8665  0.1223 -0.1430
  131SOL    HW2 1835   0.329   5.499   3.578 -0.5981  1.7099 -0.7574
  132SOL     OW 1836   5.344   3.786   3.298 -0.5161 -0.2359 -0.3680
  132SOL    HW1 1837   5.263   3.736   3.309 -0.4414 -0.1287  0.7021
  132SOL    HW2 1838   5.316   3.870   3.264 -1.2300  0.9669  2.8863
  133SOL     OW 1839   3.655   5.719   0.539 -0.1697  0.0047  0.7022
  133SOL    HW1 1840   3.569   5.753   0.562 -0.6457  0.4330 -1.4742
  133SOL    HW2 1841   3.638   5.632   0.504  0.3359 -0.0628  0.6117
  134SOL     OW 1842   2.772   2.267   3.875  0.2435 -0.4946 -0.2522
  134SOL    HW1 1843   2.788   2.181   3.838 -0.6434 -0.8120  0.0795
  134SOL    HW2 1844   2.711   2.309   3.813 -0.3098 -0.5836  0.2231
  135SOL     OW 1845   2.089   1.855   5.032 -0.0384  0.2908  0.3963
  135SOL    HW1 1846   2.138   1.868   4.950 -2.0747  2.1393 -0.6399
  135SOL    HW2 1847   2.000   1.836   5.004 -0.6642  0.3661  2.2019
  136SOL     OW 1848   3.067   6.785   6.911 -0.4957 -0.2279 -0.0948
  136SOL    HW1 1849   3.017   6.775   6.992  0.3949 -1.5447  0.3353
  136SOL    HW2 1850   3.142   6.839   6.936  0.4071 -1.6019  0.2976
  137SOL     OW 1851   6.039   1.818   7.597 -0.3593 -0.0989 -0.3031
  137SOL    HW1 1852   6.123   1.772   7.588  1.2863  2.5826  0.2182
  137SOL    HW2 1853   6.057   1.887   7.660 -2.7503  1.1066 -0.8525
  138SOL     OW 1854   5.097   4.484   4.192 -0.5189 -0.1922  0.0113
  138SOL    HW1 1855   5.147   4.504   4.271  0.8576  1.3877 -1.1946
  138SOL    HW2 1856   5.009   4.518   4.210  0.1980  1.5981  0.2926
  139SOL     OW 1857   0.267   6.986  10.538 -0.4155 -0.0216  0.0298
  139SOL    HW1 1858   0.316   6.907  10.558 -0.1902  0.0099 -0.3922
  139SOL    HW2 1859   0.223   6.966  10.456 -1.2817 -0.1279  0.5053
  140SOL     OW 1860   1.710   0.799  11.899 -0.1551 -0.3026  0.4677
  140SOL    HW1 1861   1.645   0.868  11.915 -0.9880 -1.0191  0.2078
  140SOL    HW2 1862   1.793   0.838  11.927 -0.4303  1.2084 -0.6842
  141SOL     OW 1863   1.940   0.596   1.895 -0.3932  0.6449  0.3009
  141SOL    HW1 1864   2.015   0.543   1.868  0.2247  1.4394  0.4071
  141SOL    HW2 1865   1.907   0.552   1.974  0.5253  0.7758  0.7777
  142SOL     OW 1866   0.521   1.682   7.790 -0.5541 -0.4342 -0.0748
  142SOL    HW1 1867   0.609   1.646   7.776 -1.1630 -2.6482  1.3046
  142SOL    HW2 1868   0.483   1.627   7.858 -3.2673  0.0205 -1.0957
  143SOL     OW 1869   7.142   7.794   4.754 -0.1051 -0.8258  0.0291
  143SOL    HW1 1870   7.127   7.888   4.754  0.2270 -0.7712 -0.4346
  143SOL    HW2 1871   7.066   7.758   4.801  1.0230 -0.1581  2.5312
  144SOL     OW 1872   4.503   4.490   0.828  0.7645  0.9714 -0.2984
  144SOL    HW1 1873   4.477   4.493   0.736  0.7930  1.0642 -0.3045
  144SOL    HW2 1874   4.551   4.408   0.837 -1.6838 -0.4853  0.3103
  145SOL     OW 1875   7.048   7.245   5.596 -0.7474  0.3779  0.1139
  145SOL    HW1 1876   6.987   7.177   5.624 -0.9970  0.4842 -0.1710
  145SOL    HW2 1877   6.999   7.327   5.607 -1.0912  0.3832 -1.2352
  146SOL     OW 1878   5.070   2.761   6.064 -0.0963  0.2103 -0.6564
  146SOL    HW1 1879   5.122   2.733   6.140  1.8537  1.3862 -1.4973
  146SOL    HW2 1880   4.983   2.778   6.100  0.3083 -0.9289  0.9754
  147SOL     OW 1881   5.296   5.514   5.547  0.1410  0.1235 -0.2784
  147SOL    HW1 1882   5.257   5.427   5.556  0.2627  0.1110  0.1269
  147SOL    HW2 1883   5.304   5.526   5.452  0.7753 -0.5963 -0.3201
  148SOL     OW 1884   4.711   2.484   3.159 -0.4321 -0.0453  0.1997
  148SOL    HW1 1885   4.692   2.437   3.078  0.8162 -0.4283  0.1084
  148SOL    HW2 1886   4.804   2.503   3.154 -0.5760  0.9574  1.0253
  149SOL     OW 1887   0.447   3.145   3.427 -0.0712  0.2328  0.0394
  149SOL    HW1 1888   0.461   3.188   3.511  0.2059  2.2245 -0.9452
  149SOL    HW2 1889   0.525   3.169   3.375  0.6190 -2.3643 -0.2862
  150SOL     OW 1890   2.480   7.693   6.318  0.3076  0.0225 -0.3297
  150SOL    HW1 1891   2.394   7.711   6.280  0.0622  0.2693  0.3261
  150SOL    HW2 1892   2.505   7.774   6.362 -0.1719 -0.7546  1.4517
  151SOL     OW 1893   6.291   0.168   0.353  0.5739  0.2018  0.3081
  151SOL    HW1 1894   6.293   0.259   0.322  2.1235 -0.0656 -0.5015
  151SOL    HW2 1895   6.317   0.175   0.445 -0.8289  0.6929  0.6970
  152SOL     OW 1896   5.011   5.887   6.091 -0.2285  0.0459  0.0029
  152SOL    HW1 1897   4.919   5.869   6.077 -0.2651  1.2531 -1.4679
  152SOL    HW2 1898   5.053   5.801   6.086 -1.0725 -0.3252 -1.0203
  153SOL     OW 1899   1.968   7.501  10.185  0.1127  0.6276 -0.2598
  153SOL    HW1 1900   1.990   7.422  10.235  0.5578  0.9071  0.0012
  153SOL    HW2 1901   1.900   7.543  10.237 -0.7325 -0.0094 -0.8332
  154SOL     OW 1902   7.025   2.561   2.826  0.0906 -0.3311 -0.0028
  154SOL    HW1 1903   6.961   2.494   2.852 -0.7159  0.1549 -0.6761
  154SOL    HW2 1904   7.103   2.542   2.878  0.8358 -3.4066 -1.9443
  155SOL     OW 1905   6.229   4.699  11.910 -0.5017 -0.3603 -0.0914
  155SOL    HW1 1906   6.273   4.639  11.971 -0.8178 -0.8138 -0.3050
  155SOL    HW2 1907   6.275   4.687  11.827  0.7273  1.1441  0.3234
  156SOL     OW 1908   0.383   5.705   0.586  0.4323  0.0388  0.1680
  156SOL    HW1 1909   0.465   5.694   0.538 -0.1922  0.6067 -1.0517
  156SOL    HW2 1910   0.411   5.717   0.677  1.6417 -0.7740 -0.0645
  157SOL     OW 1911   7.819   3.702   7.048 -0.0124 -0.1133 -0.3125
  157SOL    HW1 1912   7.830   3.667   6.959  0.3751 -1.3184  0.2013
  157SOL    HW2 1913   7.733   3.670   7.075 -1.2549  2.2668 -1.1268
  158SOL     OW 1914   2.687   7.409   7.275 -0.1145 -0.6062 -0.3203
  158SOL    HW1 1915   2.605   7.372   7.307  0.1693 -0.5190  0.5283
  158SOL    HW2 1916   2.754   7.350   7.308  0.5517  1.6840  2.9360
  159SOL     OW 1917   5.489   6.837   3.069  0.3870 -0.2264  0.1442
  159SOL    HW1 1918   5.440   6.918   3.057  0.2609 -0.6497 -2.9610
  159SOL    HW2 1919   5.575   6.865   3.100 -0.1600  0.9381  0.6760
  160SOL     OW 1920   0.368   6.194   1.334 -0.4959  0.0475 -0.1109
  160SOL    HW1 1921   0.354   6.127   1.267  1.9536 -0.8163  0.1378
  160SOL    HW2 1922   0.389   6.273   1.285 -2.0051  0.3115 -0.3783
  161SOL     OW 1923   7.324   7.244   2.323  0.2561  0.2401  0.5668
  161SOL    HW1 1924   7.392   7.306   2.295 -0.5523  0.7236 -0.3679
  161SOL    HW2 1925   7.284   7.286   2.400  0.3177  0.4559  0.4836
  162SOL     OW 1926   6.826   1.027  11.478  0.4206 -0.1548 -0.1417
  162SOL    HW1 1927   6.919   1.021  11.498  0.3685 -0.1828  0.0905
  162SOL    HW2 1928   6.798   0.936  11.468  0.7837 -0.1123 -1.8909
  163SOL     OW 1929   7.149   1.356   0.643  0.0088 -0.3660 -0.1628
  163SOL    HW1 1930   7.228   1.307   0.666  1.3433  1.2261 -1.1652
  163SOL    HW2 1931   7.167   1.392   0.557 -3.3708 -3.0599 -2.2671
  164SOL     OW 1932   0.676   5.605   1.542 -0.8389 -0.4724  0.1295
  164SOL    HW1 1933   0.669   5.587   1.448 -0.4202 -1.4685  0.2753
  164SOL    HW2 1934   0.654   5.521   1.584  0.0641 -0.3495  0.8887
  165SOL     OW 1935   4.490   0.162  10.736 -0.0472  0.8452  0.0819
  165SOL    HW1 1936   4.509   0.083  10.786 -1.4730  0.6628  0.3684
  165SOL    HW2 1937   4.568   0.174  10.681  1.4362  0.9031  2.0892
  166SOL     OW 1938   7.725   7.542   5.497  0.0143 -0.0738  0.5256
  166SOL    HW1 1939   7.692   7.626   5.530 -0.5030 -0.7425  1.7605
  166SOL    HW2 1940   7.819   7.545   5.515  0.9227  1.9919 -3.3325
  167SOL     OW 1941   3.012   2.192   8.800  0.1466 -0.1942  0.2903
  167SOL    HW1 1942   2.955   2.267   8.782  1.4357  0.8330  0.3964
  167SOL    HW2 1943   3.085   2.203   8.740  1.1189 -0.5071  1.3901
  168SOL     OW 1944   0.504   1.146   3.789  0.3721 -0.0297  0.5636
  168SOL    HW1 1945   0.599   1.153   3.800  0.2862  2.2619  0.3615
  168SOL    HW2 1946   0.491   1.060   3.750  2.4564 -0.1060 -0.0985
  169SOL     OW 1947   2.800   5.559  11.535 -0.0029 -0.5159 -0.5300
  169SOL    HW1 1948   2.812   5.528  11.625 -0.9895 -2.6970 -1.0924
  169SOL    HW2 1949   2.707   5.578  11.528  0.0154 -0.6307 -1.1765
  170SOL     OW 1950   6.194   0.418  11.213  0.5351 -0.4077  0.4238
  170SOL    HW1 1951   6.112   0.373  11.192 -1.0180  2.4142 -0.0634
  170SOL    HW2 1952   6.188   0.437  11.306  1.0955 -0.9488  0.5836
  171SOL     OW 1953   4.070   5.773   3.263 -0.6595 -0.1034 -0.2658
  171SOL    HW1 1954   4.009   5.758   3.191 -0.8350 -1.8653  0.2113
  171SOL    HW2 1955   4.156   5.774   3.222 -0.6922 -1.8862 -0.4419
  172SOL     OW 1956   4.407   4.238  10.800 -0.4396  0.5710 -0.2321
  172SOL    HW1 1957   4.439   4.257  10.888  1.7214 -1.2799 -0.5025
  172SOL    HW2 1958   4.408   4.322  10.755 -0.8802  1.4181  1.2863
  173SOL     OW 1959   4.560   3.820   7.754  0.0264  0.1253 -0.0678
  173SOL    HW1 1960   4.494   3.833   7.685  0.3824 -1.2712 -0.7028
  173SOL    HW2 1961   4.617   3.896   7.747 -1.3515  1.2533  0.3397
  174SOL     OW 1962   6.542   6.383   6.500 -0.8151  0.0931  0.0993
  174SOL    HW1 1963   6.472   6.328   6.534  0.1009 -0.3069  1.4335
  174SOL    HW2 1964   6.579   6.426   6.577 -0.4607  1.3475 -0.7303
  175SOL     OW 1965   4.154   6.119  10.298  0.0890  0.5214  0.3954
  175SOL    HW1 1966   4.196   6.181  10.239 -0.1774 -1.1155 -1.6022
  175SOL    HW2 1967   4.117   6.052  10.241  1.0745 -1.9399  2.4587
  176SOL     OW 1968   0.031   1.934   1.704  0.3743  0.2780  0.1140
  176SOL    HW1 1969   0.022   1.856   1.758  0.1873  1.4338  1.8413
  176SOL    HW2 1970  -0.048   1.985   1.721  1.4605  1.8454  0.7648
  177SOL     OW 1971   3.369   5.256   9.098  0.1475  0.3406 -0.3650
  177SOL    HW1 1972   3.442   5.261   9.160  0.0899 -0.4694 -0.2238
  177SOL    HW2 1973   3.370   5.166   9.067 -0.3559  0.5140 -0.9066
  178SOL     OW 1974   0.272   5.565   9.670 -0.3796  0.7185  0.0394
  178SOL    HW1 1975   0.228   5.530   9.593  0.9289  0.4955 -0.6266
  178SOL    HW2 1976   0.262   5.660   9.663 -2.6916  0.6370  1.1061
  179SOL     OW 1977   3.079   1.422   1.467 -0.2285  0.2496 -0.2902
  179SOL    HW1 1978   3.038   1.387   1.546 -0.7410 -0.5052 -0.8689
  179SOL    HW2 1979   3.015   1.485   1.433  0.0876  0.7350  0.0132
  180SOL     OW 1980   1.436   7.643   3.881  0.3156 -0.0784  0.5105
  180SOL    HW1 1981   1.472   7.578   3.821  0.2371  0.5941 -0.2817
  180SOL    HW2 1982   1.347   7.612   3.899 -0.0926  0.3626 -0.7064
  181SOL     OW 1983   7.168   3.648  10.463 -0.2028  0.2060  0.4254
  181SOL    HW1 1984   7.094   3.691  10.420 -2.0186 -0.8143  2.3510
  181SOL    HW2 1985   7.140   3.557  10.475  2.8835 -1.2473 -2.0485
  182SOL     OW 1986   6.373   3.822  12.258  0.5675 -0.1752 -0.2731
  182SOL    HW1 1987   6.401   3.839  12.168 -0.0853  0.1022 -0.4346
  182SOL    HW2 1988   6.445   3.774  12.298  0.3290 -1.4695 -1.3396
  183SOL     OW 1989   1.338   3.736   3.999  0.0580  0.5351  0.2125
  183SOL    HW1 1990   1.341   3.687   4.081 -1.7193  1.4970  0.8944
  183SOL    HW2 1991   1.306   3.823   4.024 -2.6058  0.2321 -1.7419
  184SOL     OW 1992   6.942   6.934   1.869  0.2932 -0.0046 -0.1278
  184SOL    HW1 1993   6.971   6.998   1.805 -0.7316  1.1691  0.5224
  184SOL    HW2 1994   6.899   6.986   1.937 -2.0664 -1.4557 -0.3736
  185SOL     OW 1995   4.466   3.199   9.147  0.0517  0.3485 -0.0825
  185SOL    HW1 1996   4.497   3.160   9.228 -0.7580 -1.6072 -0.6656
  185SOL    HW2 1997   4.372   3.211   9.159  0.1416  1.3652 -0.2473
  186SOL     OW 1998   3.883   0.404   0.683  0.0168 -0.7713 -0.5321
  186SOL    HW1 1999   3.960   0.452   0.716 -0.9108 -0.6729  1.7075
  186SOL    HW2 2000   3.869   0.439   0.595  2.2793 -0.5051 -0.8534
  187SOL     OW 2001   5.742   2.554   2.368 -0.0011  0.9966  0.5003
  187SOL    HW1 2002   5.806   2.625   2.353  0.8355  0.3992  1.1685
  187SOL    HW2 2003   5.796   2.477   2.384 -0.8629 -0.2170 -1.9482
  188SOL     OW 2004   7.209   3.037   4.527 -0.2169  0.1256  0.3130
  188SOL    HW1 2005   7.167   2.955   4.502 -1.5244  0.8577  0.0378
  188SOL    HW2 2006   7.226   3.027   4.621 -0.8785 -0.2430  0.4006
  189SOL     OW 2007   7.508   0.121   7.100 -0.3076  0.1942 -0.4261
  189SOL    HW1 2008   7.459   0.039   7.093  0.3411 -0.3576  0.9847
  189SOL    HW2 2009   7.504   0.143   7.193  1.4312  0.5409 -0.3935
  190SOL     OW 2010   6.184   0.476   8.694  0.0141  0.4404  0.0056
  190SOL    HW1 2011   6.173   0.409   8.628 -0.3248 -0.4872  0.9738
  190SOL    HW2 2012   6.125   0.450   8.765  2.4287 -0.2464  1.9343
  191SOL     OW 2013   6.071   1.826   1.598  0.1942  0.2447 -0.1180
  191SOL    HW1 2014   6.074   1.847   1.505  0.2693 -0.9364 -0.3936
  191SOL    HW2 2015   6.163   1.833   1.627  0.6436 -2.0670 -0.7804
  192SOL     OW 2016   4.193   3.494   2.014  0.3127 -0.2345  0.7481
  192SOL    HW1 2017   4.267   3.543   2.050  1.2508 -0.7840 -0.3285
  192SOL    HW2 2018   4.230   3.408   1.992 -1.0949 -1.1586  1.8501
  193SOL     OW 2019   2.508   4.326   7.430  0.2223 -0.1627  0.1768
  193SOL    HW1 2020   2.424   4.296   7.465  0.2002 -0.2511  0.0443
  193SOL    HW2 2021   2.571   4.261   7.460  0.4067  0.4426  1.1475
  194SOL     OW 2022   5.104   4.707   9.770 -0.0474 -0.2364 -0.2236
  194SOL    HW1 2023   5.162   4.635   9.795 -1.1236 -1.0725 -0.0205
  194SOL    HW2 2024   5.151   4.786   9.796  1.1143 -0.8673 -0.3417
  195SOL     OW 2025   4.217   2.491   7.783 -0.5475 -0.2407 -0.3507
  195SOL    HW1 2026   4.142   2.549   7.800  0.3323  1.2219 -1.3013
  195SOL    HW2 2027   4.180   2.403   7.788 -2.6874  0.4556 -2.2721
  196SOL     OW 2028   2.237   6.995   8.133 -0.1180  0.0263 -0.1516
  196SOL    HW1 2029   2.238   7.089   8.152 -0.0333 -0.1239  0.6310
  196SOL    HW2 2030   2.221   6.954   8.218  3.2784 -0.8121  0.2120
  197SOL     OW 2031   5.627   5.483   6.951  0.1277 -0.4043 -0.1984
  197SOL    HW1 2032   5.672   5.558   6.912  0.7407 -1.6706 -2.1218
  197SOL    HW2 2033   5.677   5.463   7.030  0.6054  0.5484 -0.2499
  198SOL     OW 2034   7.392   5.053   8.342  0.3711 -0.4365  0.0421
  198SOL    HW1 2035   7.363   5.142   8.324  2.8847  0.3146 -0.7212
  198SOL    HW2 2036   7.384   5.007   8.258  1.4628 -0.1726 -0.2211
  199SOL     OW 2037   5.926   3.248   4.639 -0.6013 -0.0583 -0.4517
  199SOL    HW1 2038   5.835   3.244   4.608 -0.4190 -1.5436 -0.8431
  199SOL    HW2 2039   5.927   3.193   4.717 -0.4187  1.4186  0.6344
  200SOL     OW 2040   0.487   3.663  11.989 -0.2989 -0.1550  0.3098
  200SOL    HW1 2041   0.417   3.606  12.021 -0.0348 -0.8582 -0.3235
  200SOL    HW2 2042   0.501   3.726  12.059 -2.5921  0.9545 -0.1185
  201SOL     OW 2043   1.839   7.936   1.840 -0.1908 -0.1384 -0.2831
  201SOL    HW1 2044   1.793   7.934   1.756 -1.3050 -1.0707  0.3117
  201SOL    HW2 2045   1.882   8.021   1.842 -2.7219  1.2486 -0.4883
  202SOL     OW 2046   7.746   4.329  10.010 -0.3931  0.2235 -1.0347
  202SOL    HW1 2047   7.806   4.381  10.064 -1.1741  0.3688 -0.2942
  202SOL    HW2 2048   7.793   4.247   9.994  0.3495  0.6698 -1.1952
  203SOL     OW 2049   3.248   6.117   6.684 -0.0173  0.0636 -0.2254
  203SOL    HW1 2050   3.273   6.170   6.608  0.5049  0.6846  0.3604
  203SOL    HW2 2051   3.331   6.098   6.728 -0.2041 -1.2053 -0.3840
  204SOL     OW 2052   3.827   6.648  11.310 -0.1414 -0.3951 -0.1660
  204SOL    HW1 2053   3.794   6.672  11.223  0.6777 -1.8915 -0.9247
  204SOL    HW2 2054   3.810   6.554  11.317 -1.7098 -0.0276  2.0052
  205SOL     OW 2055   6.510   6.805   1.682  0.1684 -0.1193  0.0811
  205SOL    HW1 2056   6.496   6.713   1.662 -0.2418 -0.2670  1.0223
  205SOL    HW2 2057   6.602   6.811   1.706 -0.0920 -0.5099  1.2025
  206SOL     OW 2058   3.141   7.094   2.381 -0.1231  0.1459 -0.0369
  206SOL    HW1 2059   3.102   7.173   2.342 -0.3684 -0.4870 -1.0942
  206SOL    HW2 2060   3.229   7.090   2.345 -0.5765 -0.8107 -1.0861
  207SOL     OW 2061   3.248   6.525   4.586  0.2426  0.0413  0.1403
  207SOL    HW1 2062   3.161   6.549   4.618 -0.8464 -1.7332 -1.2447
  207SOL    HW2 2063   3.246   6.547   4.493  1.2948  0.0047  0.0969
  208SOL     OW 2064   7.457   3.595  10.770  0.3629 -0.1438 -0.2669
  208SOL    HW1 2065   7.391   3.577  10.837  0.1508 -1.9457 -0.8890
  208SOL    HW2 2066   7.539   3.602  10.817  0.0854 -0.4785  0.2760
  209SOL     OW 2067   7.236   6.234   6.356  0.0908 -0.4085 -0.3103
  209SOL    HW1 2068   7.302   6.280   6.304  0.4948 -0.0723  0.4960
  209SOL    HW2 2069   7.283   6.163   6.398  0.2817  0.6546  1.3797
  210SOL     OW 2070   1.257   1.351   3.330 -0.2425 -0.8726  0.1837
  210SOL    HW1 2071   1.190   1.324   3.268 -0.8272  0.2314  0.3166
  210SOL    HW2 2072   1.217   1.423   3.379  0.8532 -0.5391  0.6186
  211SOL     OW 2073   5.063   2.801   9.498  0.0886  0.0831  0.0321
  211SOL    HW1 2074   5.118   2.764   9.567  0.3561 -0.0564 -0.2560
  211SOL    HW2 2075   4.983   2.828   9.543 -0.2237 -1.0784  0.2152
  212SOL     OW 2076   0.319   4.964  11.568  0.0857  0.0846  0.2357
  212SOL    HW1 2077   0.263   4.947  11.492  1.2356  0.9872 -0.8768
  212SOL    HW2 2078   0.351   4.878  11.594  2.5470 -0.0325 -2.6648
  213SOL     OW 2079   7.018   3.208   1.584  0.6085  0.6997 -0.4043
  213SOL    HW1 2080   6.987   3.118   1.583 -2.4933  1.6204  0.9138
  213SOL    HW2 2081   7.110   3.202   1.557  0.3073 -2.7144 -1.1330
  214SOL     OW 2082   1.911   7.489  11.858  0.1379 -0.4068 -0.4581
  214SOL    HW1 2083   1.888   7.397  11.861 -1.1163 -0.1115 -0.4824
  214SOL    HW2 2084   1.952   7.500  11.772 -0.7839 -0.7157 -0.9524
  215SOL     OW 2085   5.723   0.721   4.142 -0.4410  0.0133 -0.0506
  215SOL    HW1 2086   5.725   0.656   4.072 -0.5053  2.6545 -2.6968
  215SOL    HW2 2087   5.687   0.800   4.101 -1.4122  1.4684  3.2536
  216SOL     OW 2088   5.412   1.475  11.862  0.1840  0.0602  0.1442
  216SOL    HW1 2089   5.322   1.472  11.892  0.5073 -0.1320  1.1476
  216SOL    HW2 2090   5.412   1.425  11.780 -0.8139  0.9975 -0.4543
  217SOL     OW 2091   1.699   6.338   1.975 -0.3153 -0.4925 -0.7927
  217SOL    HW1 2092   1.638   6.387   2.031 -1.7193  0.7841 -3.2480
  217SOL    HW2 2093   1.654   6.255   1.959 -0.0315 -0.7543 -0.2461
  218SOL     OW 2094   5.252   3.511   1.666  0.0471 -0.3461  0.0472
  218SOL    HW1 2095   5.169   3.478   1.701 -0.2975 -0.0619 -0.5010
  218SOL    HW2 2096   5.283   3.440   1.609 -1.4189  0.8061 -2.3011
  219SOL     OW 2097   0.970   7.005   8.164 -0.0015 -0.7340 -0.6468
  219SOL    HW1 2098   1.003   6.915   8.156 -0.7357 -1.2219  1.2517
  219SOL    HW2 2099   0.894   6.997   8.221  0.9332  1.3189  0.9752
  220SOL     OW 2100   4.070   1.369   2.043 -1.4214  0.1624 -0.1475
  220SOL    HW1 2101   3.977   1.392   2.032 -1.0995  2.0020  0.5053
  220SOL    HW2 2102   4.098   1.422   2.118  0.2661 -0.0124 -0.6247
  221SOL     OW 2103   3.298   1.469   9.817 -0.2633  0.6395 -0.7359
  221SOL    HW1 2104   3.348   1.451   9.897  0.0752 -0.0340 -1.0946
  221SOL    HW2 2105   3.363   1.500   9.755 -0.3108 -0.0969 -1.1585
  222SOL     OW 2106   0.411   3.882   7.849 -0.7064  0.1335 -0.0164
  222SOL    HW1 2107   0.331   3.914   7.808 -0.8228  0.0908  0.1717
  222SOL    HW2 2108   0.394   3.890   7.943 -0.9297 -0.9164  0.0454
  223SOL     OW 2109   3.546   2.996   2.475  0.0010 -0.6663 -0.1671
  223SOL    HW1 2110   3.471   3.005   2.534  0.6823  0.7025  0.5288
  223SOL    HW2 2111   3.620   2.978   2.533  0.6888  0.7520 -0.5540
  224SOL     OW 2112   5.007   5.094   9.548  0.5659  0.2329 -0.3396
  224SOL    HW1 2113   5.092   5.067   9.582  0.3783  0.3987  0.2830
  224SOL    HW2 2114   5.024   5.180   9.509  0.4884  0.7298  0.6926
  225SOL     OW 2115   7.162   3.516   6.041 -0.2258  0.2817 -0.4597
  225SOL    HW1 2116   7.100   3.445   6.058  0.2047 -0.1848 -0.7930
  225SOL    HW2 2117   7.212   3.524   6.122  0.3935 -0.4916 -0.7426
  226SOL     OW 2118   7.004   1.992  12.241  0.2269 -0.3011  0.0873
  226SOL    HW1 2119   7.074   2.046  12.277  1.4713 -1.6359 -0.2433
  226SOL    HW2 2120   6.929   2.050  12.236  1.4906  1.3804 -0.1998
  227SOL     OW 2121   7.105   1.920   8.519 -1.0627  0.0067  0.1986
  227SOL    HW1 2122   7.050   1.996   8.536 -0.4768  0.1074  1.7887
  227SOL    HW2 2123   7.055   1.846   8.553 -0.8895 -0.1068  0.2044
  228SOL     OW 2124   4.958   1.213   8.844 -0.0004  0.4305 -0.5087
  228SOL    HW1 2125   4.891   1.213   8.911  0.3173 -0.4965 -0.1824
  228SOL    HW2 2126   4.927   1.277   8.779 -1.7584 -0.7940 -0.9406
  229SOL     OW 2127   7.531   2.811   3.422 -0.4087 -0.3195  0.6314
  229SOL    HW1 2128   7.556   2.900   3.396 -0.7252 -0.1571  0.8703
  229SOL    HW2 2129   7.614   2.766   3.436 -0.2452 -0.0517  0.5384
  230SOL     OW 2130   3.986   0.611   3.823  0.1077 -0.2227 -0.3673
  230SOL    HW1 2131   4.028   0.604   3.737  0.7980 -0.6882 -0.0036
  230SOL    HW2 2132   4.020   0.536   3.872  0.5932  0.6441  0.6689
  231SOL     OW 2133   4.679   4.173   2.568 -0.1837 -0.2021  0.0323
  231SOL    HW1 2134   4.593   4.184   2.610 -0.4697  0.0463 -0.6065
  231SOL    HW2 2135   4.702   4.260   2.536 -0.2250 -0.4896 -0.7997
  232SOL     OW 2136   7.122   6.854   6.568  0.1171 -0.3372 -0.0221
  232SOL    HW1 2137   7.103   6.911   6.493  0.4118 -0.5536 -0.2598
  232SOL    HW2 2138   7.170   6.910   6.629 -1.0359  0.1476  0.4777
  233SOL     OW 2139   1.824   6.223   6.872  0.6307  0.0333 -0.3896
  233SOL    HW1 2140   1.797   6.253   6.785  0.9833  0.5154 -0.3366
  233SOL    HW2 2141   1.820   6.128   6.866 -0.4173  0.0831 -0.5900
  234SOL     OW 2142   3.726   6.264   9.887 -0.2823 -0.2481 -0.3357
  234SOL    HW1 2143   3.730   6.318   9.808  0.6812  0.1467 -0.0408
  234SOL    HW2 2144   3.812   6.222   9.892 -1.3061 -2.6115 -1.0731
  235SOL     OW 2145   7.363   4.253   5.761  0.1317  0.6266 -0.1538
  235SOL    HW1 2146   7.269   4.271   5.756  0.3842  2.0755  0.0063
  235SOL    HW2 2147   7.402   4.313   5.698  1.0025  0.4046  0.1673
  236SOL     OW 2148   1.634   2.663   1.801 -0.8172 -0.1868 -0.3337
  236SOL    HW1 2149   1.661   2.751   1.827 -0.2949 -0.3415 -0.3495
  236SOL    HW2 2150   1.598   2.625   1.881 -1.8041  0.3220 -0.5199
  237SOL     OW 2151   0.412   4.292   5.668  0.3911 -0.2693 -0.3203
  237SOL    HW1 2152   0.501   4.318   5.691 -0.7606  2.9765  1.0213
  237SOL    HW2 2153   0.386   4.354   5.600 -1.0439 -0.8421 -0.3242
  238SOL     OW 2154   1.758   3.542   3.326 -0.5160 -0.0743  0.0225
  238SOL    HW1 2155   1.735   3.630   3.355 -1.3093 -0.5244  0.7853
  238SOL    HW2 2156   1.769   3.492   3.406 -2.6982 -1.3325 -0.3906
  239SOL     OW 2157   5.134   4.192  11.322  0.4748 -0.0780  0.2129
  239SOL    HW1 2158   5.084   4.200  11.403  0.6444 -1.7477  0.5137
  239SOL    HW2 2159   5.217   4.237  11.340  0.5590 -0.5479  1.0174
  240SOL     OW 2160   4.793   7.724   7.429 -0.2761 -0.5050  0.4773
  240SOL    HW1 2161   4.888   7.715   7.424 -0.3741 -1.1180 -0.4112
  240SOL    HW2 2162   4.760   7.675   7.354 -1.2654  0.3365  0.3450
  241SOL     OW 2163   5.954   4.999   5.181 -0.1427  0.2051  0.0685
  241SOL    HW1 2164   5.985   4.920   5.225 -0.9740  0.6497  1.5170
  241SOL    HW2 2165   5.859   4.994   5.187 -0.2256  1.0232 -0.3787
  242SOL     OW 2166   3.862   6.890   4.048  0.1061 -0.4328  0.1094
  242SOL    HW1 2167   3.816   6.810   4.020  1.7954 -1.1319 -0.8122
  242SOL    HW2 2168   3.954   6.864   4.053  0.5111  1.0926  1.2722
  243SOL     OW 2169   0.232   7.895   6.519  0.0656  0.2801 -0.7075
  243SOL    HW1 2170   0.183   7.899   6.437  0.2959 -0.1170 -0.8699
  243SOL    HW2 2171   0.287   7.816   6.510 -0.5991 -0.3005  0.2094
  244SOL     OW 2172   0.327   2.940   4.688 -0.1816  0.7166  0.1920
  244SOL    HW1 2173   0.360   2.872   4.745  0.4563 -0.7945 -1.8617
  244SOL    HW2 2174   0.233   2.943   4.706  0.1767  1.3110  2.2636
  245SOL     OW 2175   5.132   3.243   7.258  0.1034  0.4958  0.0554
  245SOL    HW1 2176   5.216   3.287   7.268  0.9211 -0.8050 -0.7028
  245SOL    HW2 2177   5.130   3.178   7.329  0.3225 -0.3333 -0.6826
  246SOL     OW 2178   7.627   6.746   3.531  0.2345 -0.1899 -0.4725
  246SOL    HW1 2179   7.615   6.778   3.441  3.1274 -0.3430 -1.0215
  246SOL    HW2 2180   7.678   6.815   3.573  0.1463 -0.7746  0.6204
  247SOL     OW 2181   5.106   1.974   9.281 -0.2349  0.4234  0.3289
  247SOL    HW1 2182   5.078   1.908   9.218  0.5650 -1.8192  2.1590
  247SOL    HW2 2183   5.027   2.024   9.302 -0.6408  0.8070 -1.8672
  248SOL     OW 2184   6.008   3.549  10.522  0.9784  0.3905 -0.3927
  248SOL    HW1 2185   6.021   3.636  10.560  2.2586  0.1869 -0.3027
  248SOL    HW2 2186   6.079   3.540  10.458  0.8668 -0.5814 -0.3971
  249SOL     OW 2187   5.903   5.453   0.157 -0.0424 -0.2457 -0.9664
  249SOL    HW1 2188   5.930   5.398   0.231  0.7996  0.1832 -0.9524
  249SOL    HW2 2189   5.983   5.496   0.127 -0.2066 -1.0765 -2.7075
  250SOL     OW 2190   3.749   4.417   0.835  0.2637 -0.2646  0.1077
  250SOL    HW1 2191   3.674   4.467   0.866  0.6966  0.2680  0.3036
  250SOL    HW2 2192   3.711   4.353   0.774 -0.2741  0.4202 -0.2903
  251SOL     OW 2193   2.457   0.523   9.338  0.1634  0.1308  0.6753
  251SOL    HW1 2194   2.487   0.432   9.344  0.8760  0.2864 -0.3461
  251SOL    HW2 2195   2.373   0.518   9.292  0.4592  0.0382  0.1447
  252SOL     OW 2196   2.128   7.778   7.272  0.1490  0.0064 -0.0929
  252SOL    HW1 2197   2.159   7.740   7.354 -0.8073  0.8415  0.6772
  252SOL    HW2 2198   2.195   7.842   7.249 -0.3835  0.9676  0.9439
  253SOL     OW 2199   0.550   5.075   3.392  0.2726  0.5103  0.2754
  253SOL    HW1 2200   0.472   5.128   3.376 -0.4237 -0.1401  1.3311
  253SOL    HW2 2201   0.588   5.112   3.472  0.1854 -0.0914  0.6080
  254SOL     OW 2202   4.020   0.722   8.588  0.2798  0.3067  0.3500
  254SOL    HW1 2203   4.061   0.722   8.502  2.3741 -0.7850  1.2682
  254SOL    HW2 2204   4.002   0.814   8.606 -0.1483  0.5523 -1.2095
  255SOL     OW 2205   2.245   1.966   6.954 -0.0936  0.1334  0.1461
  255SOL    HW1 2206   2.302   1.998   7.023  1.0579 -1.9013  0.2312
  255SOL    HW2 2207   2.222   2.043   6.903  2.1693  1.1410  0.5430
  256SOL     OW 2208   5.983   3.868   2.245 -0.3149 -0.3446 -1.0515
  256SOL    HW1 2209   6.021   3.788   2.281 -1.5063 -0.6330 -0.3714
  256SOL    HW2 2210   6.058   3.923   2.223  0.5205 -1.5383 -1.2971
  257SOL     OW 2211   0.322   0.900   6.948  0.6000 -0.0167 -0.1790
  257SOL    HW1 2212   0.365   0.839   7.008  1.0584  0.1264 -0.3562
  257SOL    HW2 2213   0.392   0.930   6.890 -0.1226 -1.4425 -1.8972
  258SOL     OW 2214   7.397   0.875   0.450  0.1737 -1.0236 -0.3705
  258SOL    HW1 2215   7.310   0.900   0.419  0.0529 -1.1466 -0.1364
  258SOL    HW2 2216   7.457   0.932   0.402  0.0265 -1.5569 -1.1836
  259SOL     OW 2217   3.054   2.014   1.017  0.6393 -0.0318 -0.4454
  259SOL    HW1 2218   3.042   2.023   0.923 -0.0907  0.0200 -0.3506
  259SOL    HW2 2219   2.966   2.002   1.052  0.7179  1.5161  0.3925
  260SOL     OW 2220   1.431   6.487  11.580  0.1398 -0.0899 -0.2541
  260SOL    HW1 2221   1.505   6.451  11.629  0.6331 -0.0191 -0.9459
  260SOL    HW2 2222   1.433   6.581  11.600  0.0512 -0.1318 -0.0391
  261SOL     OW 2223   3.548   6.880   6.439  0.1392 -0.8266  0.0384
  261SOL    HW1 2224   3.506   6.961   6.410  0.8046 -0.5493 -0.1622
  261SOL    HW2 2225   3.480   6.835   6.490 -0.0117  0.1915  0.7666
  262SOL     OW 2226   4.285   6.653   6.324 -0.0673 -0.2725  0.1315
  262SOL    HW1 2227   4.309   6.612   6.240 -1.5518  0.2191 -0.5577
  262SOL    HW2 2228   4.198   6.690   6.309 -0.3246 -0.0973  1.8806
  263SOL     OW 2229   1.931   7.240   3.937  0.1886 -0.3181  0.0070
  263SOL    HW1 2230   1.995   7.249   4.008 -0.3009 -2.1132  0.7246
  263SOL    HW2 2231   1.880   7.321   3.940  2.6401  1.3585 -0.8717
  264SOL     OW 2232   5.901   6.380  12.372 -0.0710 -0.4320 -0.2746
  264SOL    HW1 2233   5.855   6.310  12.417 -2.0225  1.2145  0.4581
  264SOL    HW2 2234   5.938   6.434  12.442 -1.2102  0.9089 -0.6455
  265SOL     OW 2235   5.068   5.757  10.328 -0.4938  0.0944 -0.8810
  265SOL    HW1 2236   5.153   5.768  10.284 -0.0603  1.5941  0.2622
  265SOL    HW2 2237   5.006   5.800  10.269  0.0725  2.0199 -0.1466
  266SOL     OW 2238   7.247   0.124   8.486 -0.3614  0.6834  0.4769
  266SOL    HW1 2239   7.261   0.030   8.475 -1.5724  0.2844  1.9592
  266SOL    HW2 2240   7.289   0.145   8.570 -2.2765  0.8843  1.4448
  267SOL     OW 2241   6.642   7.453   9.680  0.5650  0.0317 -0.9294
  267SOL    HW1 2242   6.723   7.443   9.631  0.0309 -1.1624 -1.6304
  267SOL    HW2 2243   6.573   7.440   9.615 -0.1687 -0.6560 -0.0456
  268SOL     OW 2244   4.466   5.575   2.145 -0.0012 -0.3643 -0.4651
  268SOL    HW1 2245   4.532   5.544   2.207 -0.6393  0.5229  0.6958
  268SOL    HW2 2246   4.423   5.648   2.190 -1.2331 -0.4031 -1.5144
  269SOL     OW 2247   0.668   6.137   9.652 -0.0021 -0.0755 -0.3541
  269SOL    HW1 2248   0.624   6.063   9.609  0.1927 -0.5563  0.2680
  269SOL    HW2 2249   0.657   6.121   9.745 -1.3468  1.5111 -0.1771
  270SOL     OW 2250   0.132   0.022   4.405  0.1900  0.0523  0.2239
  270SOL    HW1 2251   0.201  -0.041   4.384  0.3782  0.7667 -1.4209
  270SOL    HW2 2252   0.054  -0.031   4.420  0.6566 -0.6462  0.2114
  271SOL     OW 2253   4.906   2.373   3.629 -0.2543 -0.6037  0.3944
  271SOL    HW1 2254   4.882   2.280   3.634 -0.4753 -0.6234 -0.6753
  271SOL    HW2 2255   4.978   2.383   3.690 -0.5435 -1.3828  0.8726
  272SOL     OW 2256   0.432   7.841   5.502 -0.3017 -0.4105  0.1020
  272SOL    HW1 2257   0.405   7.767   5.556 -1.4278 -0.3921 -0.4176
  272SOL    HW2 2258   0.353   7.894   5.493  0.4796  0.8617  0.4586
  273SOL     OW 2259   2.974   4.195   9.151 -0.3539  0.5713 -0.0179
  273SOL    HW1 2260   3.035   4.142   9.203 -0.6106  0.7822  0.5038
  273SOL    HW2 2261   2.890   4.184   9.194 -0.6148  0.5814 -0.5195
  274SOL     OW 2262   7.129   7.575   9.117  0.4280 -0.3627 -0.0964
  274SOL    HW1 2263   7.058   7.618   9.163  1.0289 -0.8025  1.2848
  274SOL    HW2 2264   7.093   7.556   9.030 -1.0263 -0.3036  0.4635
  275SOL     OW 2265   2.577   7.750   1.419 -0.0160  0.3372  0.1270
  275SOL    HW1 2266   2.498   7.795   1.388 -0.4939 -0.8023 -0.3826
  275SOL    HW2 2267   2.568   7.750   1.514 -0.6544  0.1993  0.0747
  276SOL     OW 2268   7.859   4.739   3.399 -0.8398  0.2610 -0.1934
  276SOL    HW1 2269   7.880   4.819   3.446  1.5278  0.0347 -0.7436
  276SOL    HW2 2270   7.873   4.669   3.464  1.1410  0.0475 -0.7824
  277SOL     OW 2271   3.118   4.160   2.320  0.3165  0.4192  0.3680
  277SOL    HW1 2272   3.049   4.224   2.338  0.0739 -0.3296  2.3135
  277SOL    HW2 2273   3.102   4.089   2.382  1.5754 -0.7810 -0.6040
  278SOL     OW 2274   5.776   0.779   8.071  0.1651  0.1414 -0.2782
  278SOL    HW1 2275   5.786   0.866   8.032 -2.6694  0.3993 -0.6368
  278SOL    HW2 2276   5.700   0.787   8.129  0.2661 -1.9403  0.2175
  279SOL     OW 2277   1.904   2.744   7.503 -0.2196 -0.1082  0.3705
  279SOL    HW1 2278   1.896   2.679   7.433 -0.9062 -0.6725  0.9571
  279SOL    HW2 2279   1.924   2.826   7.458  2.3960 -0.9944 -0.3171
  280SOL     OW 2280   3.269   1.041   4.226 -0.0646 -0.0151 -0.2474
  280SOL    HW1 2281   3.262   1.065   4.319  1.2746  0.5132 -0.2525
  280SOL    HW2 2282   3.241   1.120   4.179  0.4669  0.1591 -0.2787
  281SOL     OW 2283   6.342   5.543   8.121 -0.4744 -0.0806  0.0576
  281SOL    HW1 2284   6.378   5.632   8.116  2.6032 -1.2072  0.0469
  281SOL    HW2 2285   6.360   5.505   8.035 -0.2458 -1.2270  0.6008
  282SOL     OW 2286   4.416   0.257   5.791  0.5169 -0.0827  0.0657
  282SOL    HW1 2287   4.342   0.315   5.768 -0.4522 -1.2805  0.0665
  282SOL    HW2 2288   4.476   0.264   5.717  0.3708  0.8359  0.0206
  283SOL     OW 2289   1.606   1.922  10.129  0.5749  0.0322  0.1087
  283SOL    HW1 2290   1.690   1.914  10.175  1.3275 -1.2858 -1.4061
  283SOL    HW2 2291   1.578   1.832  10.113 -0.9012  0.4571  0.1416
  284SOL     OW 2292   4.816   7.550   2.260 -0.1668 -0.0646  0.1217
  284SOL    HW1 2293   4.808   7.591   2.346  2.8866 -0.2452  0.6107
  284SOL    HW2 2294   4.780   7.614   2.199 -0.6895  0.8621  1.3512
  285SOL     OW 2295   0.117   3.805   2.575 -0.3955 -0.3058 -0.3590
  285SOL    HW1 2296   0.087   3.838   2.490  1.0861  1.1410 -0.3781
  285SOL    HW2 2297   0.146   3.716   2.559 -0.6429 -0.2298 -1.2421
  286SOL     OW 2298   4.095   7.009  12.237  0.1124 -0.0567 -0.0182
  286SOL    HW1 2299   4.035   7.083  12.240 -0.5812 -0.4325 -2.4502
  286SOL    HW2 2300   4.089   6.969  12.324 -0.2276  2.1340  1.0213
  287SOL     OW 2301   5.197   0.897   3.939 -0.5971 -0.3464 -0.1026
  287SOL    HW1 2302   5.199   0.992   3.949  0.4471 -0.4155  0.4835
  287SOL    HW2 2303   5.108   0.872   3.963 -1.0561  0.5263 -0.8183
  288SOL     OW 2304   6.967   2.094  10.905 -0.0138 -0.3014  0.1670
  288SOL    HW1 2305   6.904   2.040  10.858 -0.5665 -1.0640  1.7045
  288SOL    HW2 2306   7.052   2.064  10.874 -0.3671  0.1837 -1.3370
  289SOL     OW 2307   4.539   3.585   6.914 -0.4215 -0.5193 -0.0993
  289SOL    HW1 2308   4.565   3.643   6.986 -1.7166  1.1856 -0.9186
  289SOL    HW2 2309   4.617   3.578   6.859  0.3577 -1.2494  1.0639
  290SOL     OW 2310   3.620   0.043   6.494  0.5633  0.4783  0.1868
  290SOL    HW1 2311   3.586  -0.047   6.500 -1.1694  1.0691 -0.0879
  290SOL    HW2 2312   3.640   0.066   6.585  1.3747 -0.2867  0.2215
  291SOL     OW 2313   7.313   5.378   3.633  0.6453 -0.2504 -0.2028
  291SOL    HW1 2314   7.218   5.380   3.633  0.6143  1.3824 -2.2334
  291SOL    HW2 2315   7.340   5.462   3.670  1.2650 -0.4133 -0.2666
  292SOL     OW 2316   6.567   2.968   5.169 -0.6167 -0.1705 -0.2322
  292SOL    HW1 2317   6.573   3.045   5.113 -2.6312 -0.7951 -1.4186
  292SOL    HW2 2318   6.487   2.923   5.140 -0.8141 -1.4442  2.0037
  293SOL     OW 2319   4.114   1.114  11.326 -0.1900  0.7635  0.1161
  293SOL    HW1 2320   4.188   1.130  11.269 -1.1776 -0.3598 -1.5770
  293SOL    HW2 2321   4.051   1.066  11.272 -1.0536 -0.6759  2.2288
  294SOL     OW 2322   6.965   6.253   7.352 -0.0160 -0.3469 -0.0420
  294SOL    HW1 2323   7.037   6.241   7.290 -0.4356 -1.9879 -0.2505
  294SOL    HW2 2324   7.000   6.222   7.436  0.3932  1.4280  0.4933
  295SOL     OW 2325   1.185   4.579   4.541  0.0962 -0.8304  0.1079
  295SOL    HW1 2326   1.140   4.592   4.624 -1.5024  0.1203 -0.8815
  295SOL    HW2 2327   1.223   4.491   4.549 -2.6758 -2.0889  0.6735
  296SOL     OW 2328   3.351   4.748   2.172  0.4622  0.5692 -0.1189
  296SOL    HW1 2329   3.438   4.770   2.138  0.2598  2.9113  0.6872
  296SOL    HW2 2330   3.368   4.716   2.261  0.4705  2.3521  0.5646
  297SOL     OW 2331   2.925   7.211  10.386 -0.4583  0.4166 -0.4877
  297SOL    HW1 2332   2.943   7.278  10.453  0.4253 -0.9265  0.6830
  297SOL    HW2 2333   2.832   7.191  10.397 -0.9008  1.9238 -1.3240
  298SOL     OW 2334   0.780   1.036  12.025  0.0476 -0.2147  0.4069
  298SOL    HW1 2335   0.792   1.017  11.932  1.9277 -0.2634  0.6099
  298SOL    HW2 2336   0.760   1.130  12.028  0.5564 -0.0880 -0.0273
  299SOL     OW 2337   6.553   6.993   8.720  0.3522 -0.8385 -0.2044
  299SOL    HW1 2338   6.627   7.003   8.661  2.1516 -1.5274  1.7997
  299SOL    HW2 2339   6.477   7.019   8.668  1.7998 -1.4239 -2.7774
  300SOL     OW 2340   1.931   7.190   9.536 -0.4427 -0.0383 -0.0222
  300SOL    HW1 2341   1.889   7.212   9.452 -0.4223  0.1972  0.0284
  300SOL    HW2 2342   2.022   7.173   9.513 -0.6807 -1.1425 -0.2269
  301SOL     OW 2343   3.079   6.697   8.872 -0.0148 -0.5729 -1.1073
  301SOL    HW1 2344   3.140   6.737   8.810 -0.1352 -0.1081 -0.9321
  301SOL    HW2 2345   3.093   6.746   8.954 -0.1488 -0.9067 -0.8824
  302SOL     OW 2346   0.710   0.829   4.192 -0.2507  0.4950 -0.8031
  302SOL    HW1 2347   0.733   0.736   4.185 -1.2128  0.2617 -0.9869
  302SOL    HW2 2348   0.697   0.857   4.101  1.1887  1.1331 -0.8508
  303SOL     OW 2349   2.948   1.015   9.843  0.1526 -0.4645  0.2367
  303SOL    HW1 2350   2.898   1.077   9.895  0.1673  0.4987 -0.8680
  303SOL    HW2 2351   3.021   0.989   9.900  0.0655  0.4123  0.7588
  304SOL     OW 2352   2.194   5.436   2.514  0.6145 -0.3051 -0.1247
  304SOL    HW1 2353   2.179   5.363   2.454 -2.4708 -1.9131  2.3026
  304SOL    HW2 2354   2.250   5.399   2.583  1.4945  0.5682 -0.3458
  305SOL     OW 2355   6.667   3.404   1.596  0.2866  0.3004  0.0779
  305SOL    HW1 2356   6.745   3.447   1.632  1.7580 -1.6104 -0.6532
  305SOL    HW2 2357   6.682   3.311   1.611 -2.4990 -0.0915  1.0639
  306SOL     OW 2358   2.123   7.485   3.609  0.3792  0.5119 -0.3455
  306SOL    HW1 2359   2.194   7.423   3.627  0.4162  1.0530  1.4992
  306SOL    HW2 2360   2.053   7.430   3.572  0.6482 -0.5523  0.6519
  307SOL     OW 2361   4.093   4.250   8.540  0.2588 -0.1720 -0.9305
  307SOL    HW1 2362   4.116   4.287   8.455  0.5583  0.0492 -0.7548
  307SOL    HW2 2363   4.149   4.296   8.602 -0.4546  0.1617 -0.5285
  308SOL     OW 2364   1.922   0.691   4.322  0.0955 -0.0645 -0.6234
  308SOL    HW1 2365   1.832   0.659   4.329  0.6241 -1.2498  1.4428
  308SOL    HW2 2366   1.913   0.776   4.279 -2.2834  0.8513  1.3988
  309SOL     OW 2367   2.149   1.177   3.728 -0.1873 -0.5712  0.4045
  309SOL    HW1 2368   2.158   1.117   3.655  2.2756  0.8085 -0.5431
  309SOL    HW2 2369   2.055   1.186   3.741 -0.6336 -2.7271 -0.9657
  310SOL     OW 2370   2.751   0.075   1.618  0.6367  0.3916 -0.2462
  310SOL    HW1 2371   2.701   0.075   1.536  0.0209  1.5163  0.1021
  310SOL    HW2 2372   2.785   0.164   1.624  1.6709 -0.0190  0.1422
  311SOL     OW 2373   3.021   4.693   4.162  0.6225 -0.0910  0.3027
  311SOL    HW1 2374   3.038   4.767   4.220  0.7044 -0.3030  0.5505
  311SOL    HW2 2375   3.051   4.616   4.211 -0.5810 -0.4274  0.5598
  312SOL     OW 2376   0.928   0.103   5.362 -0.4691 -0.8006  0.3491
  312SOL    HW1 2377   0.951   0.177   5.418 -1.6303  0.2547 -0.5159
  312SOL    HW2 2378   0.887   0.040   5.422 -0.4840 -0.2664  0.9144
  313SOL     OW 2379   6.543   6.627   5.710 -0.1190  0.5980 -0.3453
  313SOL    HW1 2380   6.555   6.714   5.748  0.5979  0.0777  0.6521
  313SOL    HW2 2381   6.567   6.638   5.618  0.3718  1.3644 -0.1414
  314SOL     OW 2382   2.695   5.992   1.049 -0.5103  0.4111 -0.6232
  314SOL    HW1 2383   2.775   6.042   1.036 -0.6187  0.5680 -0.6879
  314SOL    HW2 2384   2.652   6.034   1.123 -1.4593  1.5147 -1.7538
  315SOL     OW 2385   7.645   6.220   1.665 -0.3161  0.5135 -0.0780
  315SOL    HW1 2386   7.604   6.190   1.747 -0.9262  0.5716 -0.3503
  315SOL    HW2 2387   7.725   6.168   1.658 -0.9990 -0.5721 -0.1806
  316SOL     OW 2388   7.461   6.358   0.963  0.2228 -0.0075 -0.1830
  316SOL    HW1 2389   7.453   6.285   1.024 -0.8552  1.4946  1.5866
  316SOL    HW2 2390   7.391   6.344   0.900  0.0704 -0.5244  0.0943
  317SOL     OW 2391   4.175   1.665   6.050 -0.0107 -0.8259  0.5021
  317SOL    HW1 2392   4.203   1.629   5.966  0.2787  2.0867 -0.7626
  317SOL    HW2 2393   4.080   1.652   6.051 -0.0278 -0.7742 -0.3178
  318SOL     OW 2394   4.804   1.102   4.213 -0.1495 -0.3688  0.4474
  318SOL    HW1 2395   4.785   1.196   4.204  0.1418 -0.1370  2.0884
  318SOL    HW2 2396   4.894   1.099   4.246 -0.4944 -1.1877  1.3525
  319SOL     OW 2397   0.518   3.701   3.256 -0.2160 -0.5580  0.0603
  319SOL    HW1 2398   0.533   3.639   3.327 -1.5800  0.2884  1.1363
  319SOL    HW2 2399   0.442   3.665   3.209 -2.0999  1.0757  1.7039
  320SOL     OW 2400   6.566   6.989   4.785 -0.2088 -0.0963 -0.2701
  320SOL    HW1 2401   6.533   7.077   4.767 -1.7005 -0.5881 -0.0977
  320SOL    HW2 2402   6.653   6.987   4.746  0.7309  2.1103  1.4568
  321SOL     OW 2403   2.082   4.272   3.966 -0.0536 -0.2727 -0.1039
  321SOL    HW1 2404   2.044   4.338   4.024 -1.0609  1.0423 -2.1454
  321SOL    HW2 2405   2.011   4.210   3.950  0.3632 -0.8958  0.4263
  322SOL     OW 2406   5.056   6.836  11.676 -0.1957 -0.1365 -0.7795
  322SOL    HW1 2407   5.013   6.856  11.759  0.0561  1.0933 -0.9202
  322SOL    HW2 2408   5.016   6.754  11.647 -0.8771 -0.1504  0.1419
  323SOL     OW 2409   0.053   2.402   2.696 -0.0151 -0.4068  0.5050
  323SOL    HW1 2410  -0.020   2.342   2.708 -0.9942  0.5464 -0.4149
  323SOL    HW2 2411   0.027   2.481   2.743  0.9339 -0.4323  1.0986
  324SOL     OW 2412   6.748   1.790   2.296 -0.0825  0.1787  0.2847
  324SOL    HW1 2413   6.764   1.770   2.388 -0.3864 -0.3708  0.2219
  324SOL    HW2 2414   6.659   1.759   2.280  0.1112 -0.0817 -0.2936
  325SOL     OW 2415   2.275   2.505   6.265 -0.4075 -0.2335 -0.1440
  325SOL    HW1 2416   2.361   2.546   6.253 -0.6292  0.0598 -0.8303
  325SOL    HW2 2417   2.254   2.468   6.179 -0.7950 -0.6532  0.1219
  326SOL     OW 2418   0.205   0.025   1.636 -0.0845 -0.4858  0.0278
  326SOL    HW1 2419   0.246   0.084   1.573  1.0698 -2.0337 -0.7336
  326SOL    HW2 2420   0.198   0.077   1.716  0.4780  0.8165 -0.7323
  327SOL     OW 2421   6.138   1.971  11.618  0.8469  0.3219 -0.1062
  327SOL    HW1 2422   6.231   1.971  11.641  0.9637  2.3706 -0.4014
  327SOL    HW2 2423   6.123   2.057  11.578 -0.9188 -0.4100 -1.1600
  328SOL     OW 2424   6.607   7.290   3.927  0.2418 -0.3367  0.6336
  328SOL    HW1 2425   6.680   7.280   3.988  1.5804  1.5661 -0.5029
  328SOL    HW2 2426   6.554   7.361   3.964 -0.2161 -0.7273  0.7294
  329SOL     OW 2427   3.271   1.295   6.470  0.6590 -0.2026  0.1669
  329SOL    HW1 2428   3.240   1.241   6.542 -2.2112  0.4695 -0.4568
  329SOL    HW2 2429   3.280   1.234   6.397  0.6004 -0.3811  0.3086
  330SOL     OW 2430   2.575   2.889   3.657 -0.3015 -0.0007  0.1322
  330SOL    HW1 2431   2.522   2.837   3.598  0.9477 -0.3404 -0.7308
  330SOL    HW2 2432   2.640   2.827   3.692  0.1439  0.6064  0.4047
  331SOL     OW 2433   3.726   2.599   9.066  0.1926 -0.0773  0.8562
  331SOL    HW1 2434   3.762   2.672   9.115  1.1495 -1.1711  1.8206
  331SOL    HW2 2435   3.795   2.533   9.066 -0.8450 -1.1980  0.4705
  332SOL     OW 2436   2.499   7.032   7.040  0.2847 -0.2624  0.3176
  332SOL    HW1 2437   2.441   7.080   6.980  1.6134  0.6887 -0.2594
  332SOL    HW2 2438   2.454   6.949   7.054 -0.5267 -0.1508 -1.2745
  333SOL     OW 2439   3.039   1.053   7.149 -0.2401  0.8675  0.1621
  333SOL    HW1 2440   3.119   1.009   7.180  0.2599  1.7701  0.1906
  333SOL    HW2 2441   3.002   1.094   7.227 -0.6265  0.6195  0.1120
  334SOL     OW 2442   6.293   6.274  10.458  0.8074  0.0726  0.5798
  334SOL    HW1 2443   6.290   6.247  10.366 -1.6579  1.0169  0.2954
  334SOL    HW2 2444   6.245   6.205  10.504 -1.4439  1.4988  0.5155
  335SOL     OW 2445   5.520   7.361   5.676 -0.0610 -0.4121  0.3728
  335SOL    HW1 2446   5.452   7.341   5.612  0.0801 -0.6583  0.2967
  335SOL    HW2 2447   5.476   7.412   5.744  0.0430  0.9177 -0.5175
  336SOL     OW 2448   1.260   6.108   4.049  0.0535 -0.3117 -0.5686
  336SOL    HW1 2449   1.287   6.029   4.002  0.9408 -0.6361  0.4282
  336SOL    HW2 2450   1.339   6.163   4.051 -0.4067  0.3558 -0.7879
  337SOL     OW 2451   4.696   2.521   1.866 -0.0757 -0.4505  0.2347
  337SOL    HW1 2452   4.714   2.452   1.930  1.0622 -0.1871  0.2181
  337SOL    HW2 2453   4.620   2.567   1.900  0.3628 -0.4756  1.2642
  338SOL     OW 2454   7.314   0.294   5.085  0.3295 -0.3685 -0.2572
  338SOL    HW1 2455   7.319   0.200   5.068 -0.8973 -0.7259  1.1978
  338SOL    HW2 2456   7.406   0.320   5.097  0.6287 -1.5617  0.2248
  339SOL     OW 2457   4.805   2.019   0.636 -0.2776 -0.0475  0.0902
  339SOL    HW1 2458   4.813   2.106   0.674  0.8525  0.6300 -1.5868
  339SOL    HW2 2459   4.758   2.033   0.554 -1.0238 -1.1863  0.3063
  340SOL     OW 2460   0.462   4.860   3.244  0.7452 -0.2530 -0.1010
  340SOL    HW1 2461   0.376   4.823   3.266  0.2203  1.1892  0.3990
  340SOL    HW2 2462   0.473   4.932   3.306  3.2604 -1.6544  1.2319
  341SOL     OW 2463   0.721   6.982   0.186  0.3534  0.1247  0.0503
  341SOL    HW1 2464   0.771   6.964   0.105  0.0445  0.0848 -0.1327
  341SOL    HW2 2465   0.631   6.989   0.157  0.0595 -1.1846  0.5670
  342SOL     OW 2466   7.385   7.692   9.088  0.0896  0.2234  0.4806
  342SOL    HW1 2467   7.391   7.786   9.108 -0.9290 -0.0149  2.1013
  342SOL    HW2 2468   7.291   7.675   9.083  0.2508 -0.3390 -1.9552
  343SOL     OW 2469   3.926   3.721   4.360 -0.3980 -0.6977 -0.4839
  343SOL    HW1 2470   3.833   3.740   4.351 -0.2413 -0.5234 -2.0123
  343SOL    HW2 2471   3.948   3.671   4.282  0.5250 -1.8963  0.5032
  344SOL     OW 2472   6.000   4.018  11.815  0.1237  0.2830 -0.3408
  344SOL    HW1 2473   6.003   4.105  11.777 -0.2223  0.4260 -0.0582
  344SOL    HW2 2474   6.011   4.033  11.909  0.9151 -0.0560 -0.3759
  345SOL     OW 2475   0.832   7.127  11.575 -0.2969  0.8043 -0.2485
  345SOL    HW1 2476   0.873   7.163  11.497  1.0298  0.0338  0.0561
  345SOL    HW2 2477   0.794   7.043  11.546 -0.7928  1.0447 -0.3063
  346SOL     OW 2478   2.118   0.010   1.364  0.4132 -0.0070  0.3061
  346SOL    HW1 2479   2.077   0.097   1.357  1.3620  0.3284 -2.3030
  346SOL    HW2 2480   2.207   0.028   1.394 -0.1425 -0.3811  2.3023
  347SOL     OW 2481   1.206   1.773   7.860  0.1589  0.0608  0.7132
  347SOL    HW1 2482   1.269   1.717   7.905  0.9777  0.5431  0.1851
  347SOL    HW2 2483   1.122   1.730   7.873  0.8619 -1.7284 -0.3485
  348SOL     OW 2484   4.351   2.227   0.836 -0.1069  0.4579  0.1591
  348SOL    HW1 2485   4.266   2.256   0.870  0.4058  0.4109  1.5307
  348SOL    HW2 2486   4.347   2.132   0.837 -0.8039  0.4088 -1.8380
  349SOL     OW 2487   5.106   6.235  11.671 -0.5721  0.0491 -0.0958
  349SOL    HW1 2488   5.046   6.188  11.728  0.0813 -1.1977 -0.4159
  349SOL    HW2 2489   5.182   6.178  11.662 -0.1447  0.7493 -1.2438
  350SOL     OW 2490   0.337   3.801  10.935 -0.4482 -0.4849 -0.2693
  350SOL    HW1 2491   0.430   3.789  10.916 -0.0657  0.2207  1.0301
  350SOL    HW2 2492   0.294   3.730  10.887  0.6494 -0.2633 -1.6659
  351SOL     OW 2493   3.089   4.582   1.313  0.4847 -0.5282  0.5666
  351SOL    HW1 2494   3.070   4.615   1.401 -1.2812 -0.2572  0.1156
  351SOL    HW2 2495   3.017   4.522   1.293 -0.2815  0.9535 -1.4688
  352SOL     OW 2496   4.146   6.654   1.655 -0.7150 -0.1807 -0.0402
  352SOL    HW1 2497   4.078   6.659   1.722 -0.4267 -0.6131  0.2943
  352SOL    HW2 2498   4.110   6.598   1.587 -2.4452  3.0122 -1.9992
  353SOL     OW 2499   7.177   5.969   3.548  0.0103 -0.2875  0.0458
  353SOL    HW1 2500   7.271   5.948   3.549 -0.4315 -2.5263 -0.2663
  353SOL    HW2 2501   7.159   5.991   3.456  0.5993  2.3752  0.4815
  354SOL     OW 2502   5.261   7.691   2.059 -0.1604 -0.1399  0.5068
  354SOL    HW1 2503   5.283   7.669   2.150 -0.9365  0.2509  0.7971
  354SOL    HW2 2504   5.172   7.725   2.064  0.2117  0.9803 -0.2495
  355SOL     OW 2505   5.825   4.496  10.368  0.3639  0.5990  0.0618
  355SOL    HW1 2506   5.758   4.430  10.385  1.0276  0.0498  0.5512
  355SOL    HW2 2507   5.876   4.461  10.295  0.5130  0.7277  0.1038
  356SOL     OW 2508   0.540   0.967   6.801  0.4042 -0.3976  0.1157
  356SOL    HW1 2509   0.472   0.992   6.739 -0.6247  0.5306  1.5238
  356SOL    HW2 2510   0.607   0.923   6.749 -0.3652  0.4188 -1.6273
  357SOL     OW 2511   4.045   6.803  11.353 -0.4612  0.2323  0.4605
  357SOL    HW1 2512   4.110   6.774  11.416 -0.9134 -0.2686  0.7057
  357SOL    HW2 2513   3.972   6.741  11.363 -0.1334 -0.5123 -1.2837
  358SOL     OW 2514   1.614   7.949   9.721 -0.4840 -0.1649 -0.1385
  358SOL    HW1 2515   1.607   8.007   9.797  0.9449 -1.1666  0.8078
  358SOL    HW2 2516   1.531   7.901   9.721 -0.6746  0.1447  0.5270
  359SOL     OW 2517   3.011   4.787   2.825 -0.0541 -0.2609 -0.1386
  359SOL    HW1 2518   2.980   4.707   2.780  0.2415 -0.6716  0.3845
  359SOL    HW2 2519   3.050   4.755   2.906  0.6502  0.3659 -0.2265
  360SOL     OW 2520   5.944   4.695   1.900  0.4529 -0.3400 -0.2924
  360SOL    HW1 2521   5.958   4.696   1.805 -1.9456  2.5007 -0.7504
  360SOL    HW2 2522   6.029   4.721   1.937  0.8218  0.7771 -1.8214
  361SOL     OW 2523   1.734   4.227   3.201 -0.5332  0.1732  0.3233
  361SOL    HW1 2524   1.803   4.219   3.266  1.1170  1.8398 -1.1200
  361SOL    HW2 2525   1.683   4.303   3.229 -1.0806 -0.3313  0.7307
  362SOL     OW 2526   4.942   3.534   6.014 -0.3123  0.1297  0.2238
  362SOL    HW1 2527   4.988   3.475   6.073  0.5348  0.9003  0.3623
  362SOL    HW2 2528   4.862   3.558   6.061  1.2362  2.2429  1.9742
  363SOL     OW 2529   2.333   6.822   4.070 -0.3073  0.0754  0.5815
  363SOL    HW1 2530   2.330   6.726   4.071 -3.3460  0.0389 -0.8057
  363SOL    HW2 2531   2.273   6.847   4.000  0.5358  3.0252  0.7798
  364SOL     OW 2532   4.300   5.756   2.642  0.5561 -0.2177  0.0215
  364SOL    HW1 2533   4.361   5.807   2.589 -0.2791 -0.3159 -1.0747
  364SOL    HW2 2534   4.249   5.706   2.578 -3.3816  2.7684  0.4944
  365SOL     OW 2535   4.668   5.666  11.301 -1.2768  0.3099  0.2203
  365SOL    HW1 2536   4.674   5.604  11.228  0.3374  1.2272 -0.4727
  365SOL    HW2 2537   4.671   5.752  11.260  0.8420  0.8679  1.3870
  366SOL     OW 2538   4.566   6.449   4.183 -0.1516  0.6359 -0.0178
  366SOL    HW1 2539   4.576   6.544   4.186  1.5312  0.5233 -1.0188
  366SOL    HW2 2540   4.586   6.419   4.271  1.4226  1.0663 -0.2064
  367SOL     OW 2541   5.344   5.708   6.236 -0.3891 -0.2707 -0.1559
  367SOL    HW1 2542   5.353   5.714   6.331  1.6189 -0.5656 -0.2891
  367SOL    HW2 2543   5.349   5.799   6.206  5.6293 -0.2375 -0.3397
  368SOL     OW 2544   5.178   1.777   7.556 -0.0271 -0.0868 -0.0799
  368SOL    HW1 2545   5.172   1.831   7.478 -2.9731 -1.5513 -1.0191
  368SOL    HW2 2546   5.127   1.823   7.622  3.3789  1.7364  1.5692
  369SOL     OW 2547   1.258   5.257   8.208  0.4423 -0.2728 -0.2159
  369SOL    HW1 2548   1.327   5.314   8.176  0.7953 -0.5808 -0.0122
  369SOL    HW2 2549   1.177   5.298   8.179  0.6654  0.5798  0.3208
  370SOL     OW 2550   2.281   7.150   5.704  0.3510  0.1651 -0.0894
  370SOL    HW1 2551   2.189   7.162   5.678  0.7068 -1.9450 -2.7483
  370SOL    HW2 2552   2.307   7.236   5.737 -2.2999  1.0974 -0.1374
  371SOL     OW 2553   5.962   5.463   8.740  0.2743 -0.0935  0.0350
  371SOL    HW1 2554   5.889   5.461   8.679  1.8918 -1.7513 -1.9722
  371SOL    HW2 2555   5.945   5.391   8.800 -0.7145  0.8002  0.8763
  372SOL     OW 2556   4.124   7.315   0.146 -0.1048  0.4136 -0.6619
  372SOL    HW1 2557   4.053   7.301   0.084  0.2101  1.6855 -1.3258
  372SOL    HW2 2558   4.204   7.310   0.094  0.1785  1.1950 -0.3247
  373SOL     OW 2559   2.271   7.681   3.254 -0.0362  0.8581  0.1314
  373SOL    HW1 2560   2.217   7.621   3.203 -1.3073  1.4221  0.7754
  373SOL    HW2 2561   2.259   7.766   3.211 -0.3881  1.1562  0.8044
  374SOL     OW 2562   2.034   6.727   2.098 -0.3307 -0.4914 -0.9752
  374SOL    HW1 2563   1.999   6.757   2.182 -0.4348 -1.5260 -0.6347
  374SOL    HW2 2564   1.999   6.789   2.034 -0.7656 -0.0572 -0.3310
  375SOL     OW 2565   3.615   0.638  11.380  0.1341  0.0808 -0.0101
  375SOL    HW1 2566   3.528   0.643  11.420  0.2696 -0.2910  0.3398
  375SOL    HW2 2567   3.607   0.568  11.315  0.3465 -0.4093  0.4818
  376SOL     OW 2568   7.398   6.493   4.977 -0.0138  0.2349 -0.2590
  376SOL    HW1 2569   7.311   6.522   5.002 -0.0529 -1.1504  1.4416
  376SOL    HW2 2570   7.429   6.443   5.052  1.8040 -0.2551 -1.2639
  377SOL     OW 2571   1.128   0.916   1.807 -0.6175 -0.1817  0.0690
  377SOL    HW1 2572   1.038   0.883   1.807 -0.7911  0.2861  0.0391
  377SOL    HW2 2573   1.177   0.853   1.859 -0.6323 -1.3243 -1.2356
  378SOL     OW 2574   5.311   2.822   4.282  0.1416  0.7897  0.1661
  378SOL    HW1 2575   5.267   2.794   4.202  0.5892  0.6674 -0.0425
  378SOL    HW2 2576   5.351   2.742   4.317  0.5140  0.9650  0.1492
  379SOL     OW 2577   7.759   3.398   9.961 -0.3309  0.4401  0.5664
  379SOL    HW1 2578   7.768   3.304   9.946 -0.3306  0.7030 -1.2895
  379SOL    HW2 2579   7.694   3.427   9.897  0.2105  1.8199  0.6056
  380SOL     OW 2580   6.641   5.424   1.258 -0.3239 -0.2061  0.2561
  380SOL    HW1 2581   6.560   5.373   1.252 -0.1770 -0.6332  1.4698
  380SOL    HW2 2582   6.681   5.394   1.340  0.8251  0.3432 -0.0873
  381SOL     OW 2583   4.138   1.361   8.045  0.2298  0.0311  0.3840
  381SOL    HW1 2584   4.074   1.290   8.048 -1.7090  1.6666  0.3781
  381SOL    HW2 2585   4.094   1.434   8.089  1.4467  1.7083 -1.0268
  382SOL     OW 2586   3.765   1.995   7.867 -0.3253 -0.1186 -0.6932
  382SOL    HW1 2587   3.722   2.067   7.821  0.4666  0.1751 -0.9956
  382SOL    HW2 2588   3.698   1.927   7.874 -1.2108  0.8006 -0.0228
  383SOL     OW 2589   6.882   2.530   4.086 -0.3195  0.1905  0.0290
  383SOL    HW1 2590   6.932   2.476   4.146  0.2748  0.1186 -0.5104
  383SOL    HW2 2591   6.851   2.604   4.139  0.5081  0.3246  0.3395
  384SOL     OW 2592   1.606   0.268  11.738  0.5431  0.1775 -0.0590
  384SOL    HW1 2593   1.592   0.363  11.735  1.7820  0.3749  0.0580
  384SOL    HW2 2594   1.523   0.231  11.706 -0.1137  1.2747  0.2957
  385SOL     OW 2595   0.007   3.007   8.500 -0.1384  0.1807 -0.9309
  385SOL    HW1 2596  -0.073   2.994   8.551  1.7541  1.5708  2.8191
  385SOL    HW2 2597   0.002   3.099   8.472  0.3301  0.4362 -0.2111
  386SOL     OW 2598   1.288   1.888   1.281 -0.2363 -0.0813 -0.3328
  386SOL    HW1 2599   1.233   1.909   1.206 -1.3703 -0.8118  0.2601
  386SOL    HW2 2600   1.226   1.857   1.348  0.8844 -0.8593  0.3839
  387SOL     OW 2601   4.284   4.557   4.541  0.4926  0.0476  0.4725
  387SOL    HW1 2602   4.371   4.531   4.511  0.3584 -0.9333  0.8836
  387SOL    HW2 2603   4.299   4.596   4.627  0.6065  0.6112  0.2010
  388SOL     OW 2604   2.158   3.167   3.347 -0.0553 -0.5325  0.6617
  388SOL    HW1 2605   2.100   3.243   3.350 -0.6916 -0.7182 -2.7536
  388SOL    HW2 2606   2.236   3.199   3.301  0.5945 -1.4456  1.1101
  389SOL     OW 2607   6.760   0.788  12.343  0.3194 -0.8710  0.3494
  389SOL    HW1 2608   6.827   0.778  12.410  0.2563 -1.9987  0.2537
  389SOL    HW2 2609   6.788   0.733  12.271  0.6252  0.6828 -0.7845
  390SOL     OW 2610   4.891   5.011   6.044 -0.5110 -0.0392  0.7130
  390SOL    HW1 2611   4.919   5.002   5.953 -1.9043  0.5637  0.2013
  390SOL    HW2 2612   4.969   4.990   6.095 -0.4370 -3.4837 -0.5392
  391SOL     OW 2613   5.633   2.636   9.843 -0.0439 -0.2706  0.6082
  391SOL    HW1 2614   5.724   2.640   9.815  0.1514 -0.7289  1.1583
  391SOL    HW2 2615   5.636   2.596   9.930 -0.8923 -1.7514 -0.0049
  392SOL     OW 2616   5.076   4.317   1.265  0.2009 -0.4416  0.6586
  392SOL    HW1 2617   5.015   4.304   1.338 -0.4836 -1.0513 -0.0104
  392SOL    HW2 2618   5.126   4.395   1.290  0.8530 -1.3348  2.3666
  393SOL     OW 2619   5.217   0.328   2.138 -0.1087  0.2280  0.3885
  393SOL    HW1 2620   5.127   0.351   2.161 -0.4405 -0.9849  0.3766
  393SOL    HW2 2621   5.268   0.347   2.217 -0.3636  0.9613  0.3811
  394SOL     OW 2622   4.179   0.648   2.760  0.7066  0.1992  0.3081
  394SOL    HW1 2623   4.239   0.599   2.816 -0.4754 -0.8615  0.6819
  394SOL    HW2 2624   4.161   0.729   2.808  0.5412 -0.2230  0.9572
  395SOL     OW 2625   6.402   5.123   2.153 -0.4380 -0.2083  0.2188
  395SOL    HW1 2626   6.472   5.133   2.088 -1.4987 -0.5308 -1.0127
  395SOL    HW2 2627   6.347   5.200   2.140 -1.9198 -1.3840 -0.8996
  396SOL     OW 2628   3.006   1.114  12.132  0.5502 -0.1103  0.5607
  396SOL    HW1 2629   3.027   1.124  12.039 -0.5270 -0.2914  0.2864
  396SOL    HW2 2630   3.071   1.051  12.164  1.9923  1.1974  0.3474
  397SOL     OW 2631   2.176   4.961  11.323 -0.8517 -0.1953  0.1217
  397SOL    HW1 2632   2.271   4.960  11.330 -0.8657  0.3431  0.3678
  397SOL    HW2 2633   2.151   4.868  11.329 -0.3037 -0.3920 -0.5555
  398SOL     OW 2634   4.263   0.150   3.346  0.1618  0.6719  0.0384
  398SOL    HW1 2635   4.227   0.236   3.327  1.8847  1.2934 -0.6959
  398SOL    HW2 2636   4.309   0.161   3.429 -0.2618  0.2404  0.3344
  399SOL     OW 2637   3.423   5.202   5.910 -0.7037  0.1360  0.3488
  399SOL    HW1 2638   3.389   5.274   5.856  0.3119 -0.2219 -0.8100
  399SOL    HW2 2639   3.513   5.227   5.929 -0.1760 -1.0454 -0.4967
  400SOL     OW 2640   0.025   0.290   9.039 -0.4665  0.0775 -0.2428
  400SOL    HW1 2641   0.082   0.337   8.979 -0.9120 -1.3146 -1.8623
  400SOL    HW2 2642  -0.054   0.271   8.987 -0.7027 -1.5327  0.6209
  401SOL     OW 2643   4.006   4.395   5.437 -0.2027  0.2946 -0.2558
  401SOL    HW1 2644   4.082   4.429   5.486  1.4315  0.8743 -2.9527
  401SOL    HW2 2645   3.989   4.462   5.371  0.4481 -2.1356 -3.1220
  402SOL     OW 2646   5.670   5.483   2.229  0.7442 -0.2216  0.4673
  402SOL    HW1 2647   5.574   5.489   2.227  0.6392 -1.1756  1.7066
  402SOL    HW2 2648   5.691   5.455   2.318  2.3192  1.9261  0.8609
  403SOL     OW 2649   3.277   2.854   3.390  0.0608 -0.1073  0.1552
  403SOL    HW1 2650   3.203   2.910   3.366  0.6922 -0.1839 -2.2434
  403SOL    HW2 2651   3.237   2.771   3.414 -0.6742 -0.1955 -1.2541
  404SOL     OW 2652   0.068   0.331   4.976 -0.5387 -0.2783  0.3419
  404SOL    HW1 2653   0.113   0.330   5.061  0.3709  0.2453 -0.1240
  404SOL    HW2 2654   0.074   0.241   4.945  0.4336 -0.1701  0.1740
  405SOL     OW 2655   3.695   3.115   2.259  0.5632 -0.1388  0.1284
  405SOL    HW1 2656   3.772   3.147   2.308  0.4876 -0.4657  0.4638
  405SOL    HW2 2657   3.653   3.054   2.319  1.0702 -1.3777 -0.7411
  406SOL     OW 2658   1.131   6.672   4.288  0.1908  0.0303  0.0900
  406SOL    HW1 2659   1.210   6.693   4.238  1.4193 -2.7439  0.6643
  406SOL    HW2 2660   1.159   6.677   4.379 -0.5830 -0.0017  0.3329
  407SOL     OW 2661   1.407   7.029   6.592  0.2326 -0.0780 -0.2438
  407SOL    HW1 2662   1.371   6.948   6.629  0.0048 -0.2055 -0.7364
  407SOL    HW2 2663   1.501   7.024   6.612 -0.1689  0.9497  2.3436
  408SOL     OW 2664   6.115   5.792   9.556 -0.3817  0.6463  0.3072
  408SOL    HW1 2665   6.170   5.871   9.548 -1.1885  1.3509  1.4086
  408SOL    HW2 2666   6.134   5.742   9.477 -0.2835  2.2275 -0.7314
  409SOL     OW 2667   7.293   7.556   9.451 -0.5809  0.2427  0.3038
  409SOL    HW1 2668   7.358   7.626   9.456 -0.7710  0.4157  0.3739
  409SOL    HW2 2669   7.274   7.548   9.357 -0.9131  0.6166  0.3336
  410SOL     OW 2670   2.255   4.730   5.238  0.2952 -0.0609 -0.0262
  410SOL    HW1 2671   2.228   4.789   5.309  1.0109  1.1807 -0.7566
  410SOL    HW2 2672   2.287   4.652   5.283 -0.8302  0.0059  0.9599
  411SOL     OW 2673   0.849   3.489   9.552  0.1010  0.5023 -0.0535
  411SOL    HW1 2674   0.884   3.524   9.634  0.9083  0.1268 -0.2314
  411SOL    HW2 2675   0.905   3.526   9.484 -0.6360  0.9075 -0.4598
  412SOL     OW 2676   5.800   2.456   9.124 -0.1022  0.3864 -0.2763
  412SOL    HW1 2677   5.794   2.508   9.044 -1.3159 -0.4293 -0.7567
  412SOL    HW2 2678   5.764   2.512   9.193  1.1042  1.1561 -0.2432
  413SOL     OW 2679   1.703   7.775   8.863  0.2229 -0.3489  0.0650
  413SOL    HW1 2680   1.781   7.752   8.812  1.0894  1.1996  0.6007
  413SOL    HW2 2681   1.736   7.788   8.952 -1.1095 -2.1380  0.8762
  414SOL     OW 2682   2.398   7.934   1.354  0.1732 -0.6135 -0.3071
  414SOL    HW1 2683   2.363   7.938   1.265 -0.7775  2.1491  0.1047
  414SOL    HW2 2684   2.460   8.007   1.358  0.0563 -0.5738  1.3281
  415SOL     OW 2685   6.991   7.079   9.426 -0.0858 -0.2821  0.0578
  415SOL    HW1 2686   7.061   7.046   9.481  1.4505  0.5666 -1.2981
  415SOL    HW2 2687   6.916   7.089   9.485  1.7301  1.5031  2.2176
  416SOL     OW 2688   2.824   1.862   3.292  0.8260  0.4833 -0.7501
  416SOL    HW1 2689   2.823   1.775   3.253  0.5276  0.5965 -1.0025
  416SOL    HW2 2690   2.740   1.900   3.267 -0.0389  0.0205  1.2264
  417SOL     OW 2691   3.636   1.669  10.280 -0.2390  0.4309 -0.3875
  417SOL    HW1 2692   3.663   1.752  10.241  1.6791  0.0862  0.1162
  417SOL    HW2 2693   3.663   1.602  10.217 -0.7118  0.1047 -0.2504
  418SOL     OW 2694   4.431   5.034  10.343 -0.0598  0.0076 -0.0724
  418SOL    HW1 2695   4.444   5.107  10.404 -1.2663 -0.3596  0.6480
  418SOL    HW2 2696   4.451   5.070  10.257  0.7284  0.7996  0.4284
  419SOL     OW 2697   5.150   7.164   4.597  0.1243  0.2704 -0.0151
  419SOL    HW1 2698   5.223   7.156   4.659 -0.5307  0.7703  0.8363
  419SOL    HW2 2699   5.156   7.085   4.543  0.7827 -0.1119  0.5983
  420SOL     OW 2700   4.442   2.144  10.655 -0.4414 -0.3244 -0.3733
  420SOL    HW1 2701   4.441   2.078  10.725 -0.1616  0.6708  0.5877
  420SOL    HW2 2702   4.349   2.155  10.632 -0.6085 -0.1306  0.3567
  421SOL     OW 2703   3.744   0.465   3.959 -0.0696  0.3458 -0.2689
  421SOL    HW1 2704   3.749   0.555   3.927 -1.9188  0.2830 -0.8585
  421SOL    HW2 2705   3.655   0.456   3.993 -0.1835 -1.4546 -0.9062
  422SOL     OW 2706   5.538   5.533   6.096  0.0853  0.0690 -0.3170
  422SOL    HW1 2707   5.486   5.454   6.083 -2.0306  1.2097  0.6578
  422SOL    HW2 2708   5.487   5.585   6.158  0.8134  2.7215 -1.7966
  423SOL     OW 2709   4.730   6.259  10.871 -0.3067 -0.2906  0.3549
  423SOL    HW1 2710   4.705   6.352  10.868 -1.1037 -0.4226  1.9054
  423SOL    HW2 2711   4.817   6.256  10.830  0.0125  1.2270  0.8570
  424SOL     OW 2712   6.507   5.413   2.397  0.3736  0.0161 -0.4958
  424SOL    HW1 2713   6.557   5.493   2.385 -1.6718  1.2746 -1.1301
  424SOL    HW2 2714   6.563   5.344   2.362  1.7751  1.2818 -0.8372
  425SOL     OW 2715   6.631   6.355   8.125  0.2977  0.3509 -0.0743
  425SOL    HW1 2716   6.696   6.301   8.080 -0.7709 -1.6271  0.6344
  425SOL    HW2 2717   6.571   6.382   8.055  0.7570  0.5006 -0.4156
  426SOL     OW 2718   3.182   6.697  12.148  0.6732  0.0295 -0.6344
  426SOL    HW1 2719   3.225   6.692  12.234  2.4815  0.1886 -1.4895
  426SOL    HW2 2720   3.093   6.666  12.164  1.1822 -0.6385  1.1568
  427SOL     OW 2721   4.393   7.920   8.068 -0.2191  0.3652 -0.6657
  427SOL    HW1 2722   4.321   7.928   8.006 -0.8876 -1.6404 -0.2449
  427SOL    HW2 2723   4.358   7.865   8.139  1.0624  1.1092  0.6216
  428SOL     OW 2724   4.550   1.433  10.354  0.1062  0.2878  0.3515
  428SOL    HW1 2725   4.540   1.471  10.267  0.8301  2.6003  1.2013
  428SOL    HW2 2726   4.525   1.342  10.343 -0.1463  0.5854 -2.1961
  429SOL     OW 2727   6.708   0.786  11.388  0.1470 -0.1738  0.4282
  429SOL    HW1 2728   6.749   0.735  11.458  1.5145  1.3061  0.7821
  429SOL    HW2 2729   6.723   0.735  11.309  2.0047 -0.0956  0.6744
  430SOL     OW 2730   7.447   3.081   4.380  0.1205 -0.7148  0.6849
  430SOL    HW1 2731   7.376   3.062   4.441 -0.2034  1.2049  0.9626
  430SOL    HW2 2732   7.481   3.166   4.408 -0.0767  0.2709 -1.8025
  431SOL     OW 2733   2.730   1.224   6.411 -0.1083 -0.0376  0.2680
  431SOL    HW1 2734   2.753   1.307   6.370 -0.7531 -0.5967 -1.2844
  431SOL    HW2 2735   2.635   1.228   6.422 -0.1354 -0.5449  0.2397
  432SOL     OW 2736   4.793   4.472   1.026  0.1403 -0.1692 -0.0749
  432SOL    HW1 2737   4.882   4.444   1.048 -0.5095 -2.2924  0.0849
  432SOL    HW2 2738   4.752   4.395   0.987 -1.3436  1.0618 -1.0840
  433SOL     OW 2739   4.188   0.342  10.380  0.0071  0.2795 -0.1753
  433SOL    HW1 2740   4.221   0.423  10.419  0.7382  0.8709 -1.8846
  433SOL    HW2 2741   4.095   0.358  10.365  0.2637  1.0862 -1.0553
  434SOL     OW 2742   3.780   2.680  10.898 -0.2457  0.0304  0.2008
  434SOL    HW1 2743   3.844   2.743  10.864  1.1213 -0.8079  1.1071
  434SOL    HW2 2744   3.741   2.723  10.974  0.7920 -0.2320  0.9076
  435SOL     OW 2745   7.324   4.563   9.399 -0.3588  0.0813  0.1467
  435SOL    HW1 2746   7.319   4.531   9.310 -1.1374 -1.5467  0.7375
  435SOL    HW2 2747   7.326   4.484   9.453 -1.6481  1.0076  1.6482
  436SOL     OW 2748   5.590   5.375   1.852  0.1599  0.8955 -0.1763
  436SOL    HW1 2749   5.661   5.316   1.877 -2.0413 -1.1414  1.7814
  436SOL    HW2 2750   5.577   5.360   1.759  0.9000 -0.2916 -0.1039
  437SOL     OW 2751   1.386   7.136   1.604 -0.0544  0.0880  0.3571
  437SOL    HW1 2752   1.295   7.109   1.594  0.2619 -0.5069 -1.1067
  437SOL    HW2 2753   1.384   7.231   1.593 -0.1757 -0.1842 -2.6384
  438SOL     OW 2754   2.069   6.177  12.267  0.1007 -0.4718 -0.2923
  438SOL    HW1 2755   2.029   6.101  12.225 -0.5825 -0.6967  0.7221
  438SOL    HW2 2756   2.045   6.168  12.359 -1.2335  1.7201 -0.3575
  439SOL     OW 2757   6.964   6.446  11.421 -0.3473  0.0214 -0.5269
  439SOL    HW1 2758   7.014   6.396  11.486  2.8190  2.3638 -0.9195
  439SOL    HW2 2759   6.901   6.496  11.473  0.6104  0.1717  0.5335
  440SOL     OW 2760   4.229   6.410  10.407  0.2120  0.2448 -0.5901
  440SOL    HW1 2761   4.148   6.445  10.369 -0.2113 -0.7816 -0.6686
  440SOL    HW2 2762   4.218   6.315  10.402  0.7646  0.0907  0.7739
  441SOL     OW 2763   1.831   7.928   0.669 -0.0891 -0.3238 -0.0818
  441SOL    HW1 2764   1.752   7.878   0.648  0.8514 -0.7768 -2.8273
  441SOL    HW2 2765   1.894   7.862   0.699 -0.1419 -0.2068  0.2962
  442SOL     OW 2766   1.172   3.817   2.383 -0.4460 -0.3832  0.4465
  442SOL    HW1 2767   1.103   3.880   2.361 -0.8953 -0.2512  2.0763
  442SOL    HW2 2768   1.148   3.737   2.336 -1.6463 -0.2887  0.8460
  443SOL     OW 2769   5.521   2.091   1.640  0.0887  0.1760 -0.2041
  443SOL    HW1 2770   5.437   2.126   1.671  0.5976 -0.0855  1.6417
  443SOL    HW2 2771   5.502   2.053   1.555 -1.2692  1.6771 -0.6107
  444SOL     OW 2772   0.756   0.686   4.866 -0.3813  0.5670  0.4209
  444SOL    HW1 2773   0.812   0.739   4.809  0.2674 -2.4781 -2.0118
  444SOL    HW2 2774   0.679   0.667   4.812  0.1007 -2.1404  0.5498
  445SOL     OW 2775   1.235   3.490  10.911  0.2469 -0.2846 -0.4784
  445SOL    HW1 2776   1.307   3.551  10.891  0.6870 -0.6952 -0.1573
  445SOL    HW2 2777   1.192   3.477  10.826  0.5491 -0.0357 -0.6767
  446SOL     OW 2778   6.378   1.501  10.773  0.4369  0.1753 -0.0086
  446SOL    HW1 2779   6.335   1.580  10.739  2.4643  1.0063 -0.7810
  446SOL    HW2 2780   6.379   1.441  10.698  3.4847  1.4188 -1.1278
  447SOL     OW 2781   4.201   5.492   2.793 -0.3403  0.0842 -0.0143
  447SOL    HW1 2782   4.291   5.462   2.808 -0.0593  0.5918 -0.6469
  447SOL    HW2 2783   4.195   5.501   2.698 -0.8024  0.8515  0.0835
  448SOL     OW 2784   7.112   3.316   5.128 -0.1593 -0.5961  0.0995
  448SOL    HW1 2785   7.106   3.230   5.168  0.5370 -0.6745  0.0392
  448SOL    HW2 2786   7.022   3.350   5.130 -0.3064 -1.0201  0.7810
  449SOL     OW 2787   2.874   2.788  10.942 -0.4209  0.6915  0.2442
  449SOL    HW1 2788   2.882   2.790  10.846  0.2460  1.9459  0.3024
  449SOL    HW2 2789   2.833   2.872  10.964  0.3997  0.8853  1.1155
  450SOL     OW 2790   5.256   0.112   7.390  0.3868  1.1193  0.1372
  450SOL    HW1 2791   5.213   0.174   7.449 -0.9580  1.5856 -1.2501
  450SOL    HW2 2792   5.191   0.096   7.321  1.2561 -0.7240 -0.3117
  451SOL     OW 2793   3.832   6.717   0.753  0.6489  0.3323  0.2322
  451SOL    HW1 2794   3.739   6.729   0.733  1.0794 -0.1411 -2.4182
  451SOL    HW2 2795   3.833   6.672   0.838 -1.6070 -1.0575 -0.4028
  452SOL     OW 2796   4.723   3.520   1.301  0.1802 -0.1999  0.5090
  452SOL    HW1 2797   4.755   3.448   1.357  4.0434  1.0031  0.1004
  452SOL    HW2 2798   4.739   3.490   1.212  0.4785  0.5989  0.2887
  453SOL     OW 2799   6.035   7.283   4.074  0.1045  0.2632  0.4704
  453SOL    HW1 2800   6.078   7.291   4.159  1.2471 -5.1413  0.8083
  453SOL    HW2 2801   6.100   7.314   4.011  1.0209  0.3130  1.4128
  454SOL     OW 2802   7.669   0.568   6.525  0.5319  0.4157  0.0723
  454SOL    HW1 2803   7.575   0.557   6.511  0.4172 -0.9364  1.6001
  454SOL    HW2 2804   7.708   0.544   6.442 -0.4498  0.3364 -0.3847
  455SOL     OW 2805   4.260   2.339   1.214 -0.2391 -0.1100 -0.1309
  455SOL    HW1 2806   4.239   2.432   1.228  0.8219  0.1514 -0.1761
  455SOL    HW2 2807   4.346   2.328   1.254 -1.1427 -1.5368  1.5567
  456SOL     OW 2808   7.377   1.330   8.873  0.6529  0.3113 -0.2980
  456SOL    HW1 2809   7.373   1.241   8.839  0.8367  0.1017  0.2221
  456SOL    HW2 2810   7.327   1.327   8.954 -1.9855  1.3880 -1.7442
  457SOL     OW 2811   7.102   5.265   7.477  0.0341  0.1823 -0.0132
  457SOL    HW1 2812   7.186   5.278   7.520  0.1723 -0.8296  0.0454
  457SOL    HW2 2813   7.124   5.254   7.384 -0.3351  3.3735 -0.6146
  458SOL     OW 2814   3.428   0.991   4.836  0.6739 -0.6227 -0.0898
  458SOL    HW1 2815   3.335   1.015   4.835  1.0137  0.9171 -2.3927
  458SOL    HW2 2816   3.433   0.916   4.895 -1.8051  0.0871  1.1360
  459SOL     OW 2817   1.075   6.755   8.127 -0.3182  0.1455  0.1586
  459SOL    HW1 2818   1.029   6.674   8.150  1.3316 -0.6154  0.9339
  459SOL    HW2 2819   1.168   6.733   8.138  0.1563  2.1995  0.5411
  460SOL     OW 2820   6.471   0.823   5.367 -0.0548  0.0785 -0.1318
  460SOL    HW1 2821   6.510   0.790   5.448 -0.4794  0.1849  0.1249
  460SOL    HW2 2822   6.488   0.918   5.370 -2.6895  0.6316  1.3952
  461SOL     OW 2823   1.442   1.674   9.086  0.0973  0.2747  0.5753
  461SOL    HW1 2824   1.529   1.686   9.047  0.4529 -1.7564  0.6339
  461SOL    HW2 2825   1.382   1.685   9.013  0.3369  2.0650  0.6021
  462SOL     OW 2826   4.881   2.969  11.217 -0.4024 -0.2565  0.0679
  462SOL    HW1 2827   4.840   2.961  11.303 -0.5132 -0.6903 -0.0202
  462SOL    HW2 2828   4.832   3.039  11.173 -1.2072 -0.9184 -0.1184
  463SOL     OW 2829   3.241   7.485   6.506  0.0780  0.4585 -0.5903
  463SOL    HW1 2830   3.327   7.495   6.463  0.4687 -1.0046 -0.2174
  463SOL    HW2 2831   3.201   7.411   6.460 -0.3297  0.1439  0.2630
  464SOL     OW 2832   2.739   5.054   7.742  0.1984 -0.2743  0.6856
  464SOL    HW1 2833   2.685   4.987   7.701 -0.2005  0.5956 -0.2462
  464SOL    HW2 2834   2.705   5.061   7.831 -0.9802 -0.0274  0.2370
  465SOL     OW 2835   1.229   7.534   7.652  0.1285  1.1309  0.0994
  465SOL    HW1 2836   1.246   7.609   7.596  0.2039  2.3023  1.6313
  465SOL    HW2 2837   1.311   7.484   7.652 -0.0985  0.7085 -1.3605
  466SOL     OW 2838   4.756   1.039   7.117 -0.4202 -0.1458 -0.4109
  466SOL    HW1 2839   4.839   1.061   7.075 -0.0363 -1.3660 -0.3325
  466SOL    HW2 2840   4.702   1.004   7.047 -0.3963 -0.5743 -0.2175
  467SOL     OW 2841   1.222   7.398   2.206 -0.2522 -0.4356 -0.2358
  467SOL    HW1 2842   1.301   7.445   2.235 -0.5550  0.1169 -0.2798
  467SOL    HW2 2843   1.150   7.457   2.229 -0.7975 -1.6143  1.2568
  468SOL     OW 2844   6.600   0.841   0.689 -0.0672 -0.2934  0.4464
  468SOL    HW1 2845   6.591   0.748   0.671  1.5063 -0.7734  1.8964
  468SOL    HW2 2846   6.552   0.854   0.771  1.0564 -0.1935  1.1104
  469SOL     OW 2847   1.397   5.268   1.774  0.1614  0.4016 -0.4079
  469SOL    HW1 2848   1.418   5.191   1.722 -2.6528 -0.2520 -0.7563
  469SOL    HW2 2849   1.459   5.267   1.847  2.1800 -0.4005 -2.0481
  470SOL     OW 2850   3.282   0.334  11.246  0.0173  0.3828 -0.4575
  470SOL    HW1 2851   3.202   0.357  11.293 -0.5379  0.3208 -1.3597
  470SOL    HW2 2852   3.252   0.291  11.166  0.9837 -1.4367  0.1028
  471SOL     OW 2853   7.215   6.359   5.975  0.0900 -0.1205  0.1057
  471SOL    HW1 2854   7.248   6.275   6.007 -1.8159 -0.2383  1.9861
  471SOL    HW2 2855   7.277   6.424   6.009  1.7497 -0.6984 -1.6122
  472SOL     OW 2856   4.365   1.467   7.936  0.2235  0.4196  0.1523
  472SOL    HW1 2857   4.371   1.557   7.969 -1.1424  1.0950 -1.3063
  472SOL    HW2 2858   4.286   1.432   7.976  0.8478 -0.2069  0.8528
  473SOL     OW 2859   1.956   7.397   7.173  0.3039  0.5314  0.5295
  473SOL    HW1 2860   1.871   7.437   7.151 -0.7112 -2.4603 -1.7476
  473SOL    HW2 2861   2.020   7.453   7.130 -0.9081  0.7062 -1.2070
  474SOL     OW 2862   6.217   0.771   9.533  0.0765 -0.4685 -0.0104
  474SOL    HW1 2863   6.122   0.779   9.527 -0.0528  0.9936  2.4088
  474SOL    HW2 2864   6.232   0.685   9.572 -0.2662 -0.6810 -0.3541
  475SOL     OW 2865   7.828   5.658   2.591  0.1295 -0.1029 -0.2042
  475SOL    HW1 2866   7.860   5.683   2.504 -2.1665  0.2236 -1.0229
  475SOL    HW2 2867   7.763   5.591   2.574 -0.6616  0.2646  1.2447
  476SOL     OW 2868   6.093   7.257   0.213  0.2825 -0.2835  0.1227
  476SOL    HW1 2869   6.160   7.313   0.173  0.8124  0.1316  1.5434
  476SOL    HW2 2870   6.024   7.318   0.239 -0.0270 -0.5439 -0.0807
  477SOL     OW 2871   2.227   1.261   7.677 -0.4686 -0.3841  0.2741
  477SOL    HW1 2872   2.295   1.304   7.729  0.9158  0.2539 -1.9284
  477SOL    HW2 2873   2.146   1.304   7.703  0.3888  0.9623  0.8172
  478SOL     OW 2874   5.705   1.278  10.918 -0.4205  0.1572 -0.1392
  478SOL    HW1 2875   5.633   1.257  10.978  0.5732 -1.7227  0.4804
  478SOL    HW2 2876   5.694   1.217  10.845  0.1595  0.3129 -0.3637
  479SOL     OW 2877   1.884   1.442   1.279  0.3555  0.8809  0.3238
  479SOL    HW1 2878   1.805   1.460   1.330  0.5165  1.2508  0.4456
  479SOL    HW2 2879   1.921   1.529   1.261  0.3252  0.7499 -0.3803
  480SOL     OW 2880   4.559   4.687  11.146  0.5136 -0.7834 -0.0703
  480SOL    HW1 2881   4.622   4.653  11.209  1.7774 -4.2282 -2.8711
  480SOL    HW2 2882   4.611   4.704  11.067 -1.0932  2.6646 -0.5866
  481SOL     OW 2883   5.115   7.656   7.340  0.2475 -0.6357  0.1552
  481SOL    HW1 2884   5.183   7.613   7.288  0.4499  0.0380 -0.1454
  481SOL    HW2 2885   5.092   7.734   7.290  1.7653  1.0672  1.9160
  482SOL     OW 2886   3.066   7.938   9.991 -0.6751 -0.2272  0.1879
  482SOL    HW1 2887   3.020   7.857  10.010  0.2077 -0.9494 -0.6413
  482SOL    HW2 2888   3.103   7.965  10.075 -2.8999  0.6088  0.9661
  483SOL     OW 2889   5.778   5.915   1.741  0.1026  0.2470 -0.4052
  483SOL    HW1 2890   5.804   5.865   1.818 -2.0701  2.1229  1.6979
  483SOL    HW2 2891   5.844   5.984   1.733 -0.5905  1.0770  0.8737
  484SOL     OW 2892   2.592   3.046   9.826  0.0035  0.3765  0.0726
  484SOL    HW1 2893   2.511   3.086   9.793 -1.2814 -0.9226  1.4710
  484SOL    HW2 2894   2.656   3.117   9.825 -1.0668  1.3742 -1.3590
  485SOL     OW 2895   7.525   0.162   7.351  0.3389 -0.6550 -0.1989
  485SOL    HW1 2896   7.442   0.206   7.371  0.1293 -1.2766  0.3226
  485SOL    HW2 2897   7.591   0.231   7.359  0.0480 -0.4765  0.8686
  486SOL     OW 2898   5.133   7.483   1.063 -0.3033 -0.0426  0.3933
  486SOL    HW1 2899   5.092   7.430   0.994  0.1982 -0.3496  0.3230
  486SOL    HW2 2900   5.065   7.494   1.129 -0.7911  0.2614 -0.1563
  487SOL     OW 2901   4.435   4.368   9.855  0.2571  0.3279 -0.4141
  487SOL    HW1 2902   4.435   4.288   9.804  0.9316 -1.1043  1.6966
  487SOL    HW2 2903   4.343   4.391   9.865 -0.0113 -0.8288 -0.1304
  488SOL     OW 2904   3.386   5.620   0.814  0.0973  0.0375  0.0480
  488SOL    HW1 2905   3.479   5.624   0.839  0.7111 -0.0778 -2.0020
  488SOL    HW2 2906   3.370   5.703   0.768 -0.5254 -0.3472 -0.4571
  489SOL     OW 2907   5.094   7.713   0.462 -0.5321 -0.1524 -0.4084
  489SOL    HW1 2908   5.135   7.627   0.458 -0.6694 -0.2621  0.3341
  489SOL    HW2 2909   5.141   7.758   0.532 -1.2543 -0.0622  0.0285
  490SOL     OW 2910   4.788   0.315   7.096 -0.4287 -0.0973  0.0521
  490SOL    HW1 2911   4.711   0.273   7.058 -0.6909  0.6242 -0.2205
  490SOL    HW2 2912   4.851   0.243   7.106 -1.0504 -0.6479  0.0693
  491SOL     OW 2913   3.124   1.199   1.329  0.6520  1.0855 -0.2092
  491SOL    HW1 2914   3.061   1.199   1.257 -0.4317 -2.1421  0.5557
  491SOL    HW2 2915   3.114   1.285   1.370 -0.1663  2.2226 -2.6397
  492SOL     OW 2916   7.932   3.830  11.953  0.2442 -0.2388  0.7515
  492SOL    HW1 2917   7.939   3.923  11.974  0.8632 -0.1195  0.0840
  492SOL    HW2 2918   7.844   3.805  11.982 -0.7892  1.0840 -0.9765
  493SOL     OW 2919   2.038   7.693  10.609 -0.5793 -0.0812  0.5058
  493SOL    HW1 2920   1.981   7.713  10.535  0.4155  0.6076 -0.0902
  493SOL    HW2 2921   1.996   7.619  10.652 -0.9863 -0.7274 -0.9540
  494SOL     OW 2922   1.247   3.238  10.169 -0.1198  0.0019 -0.1404
  494SOL    HW1 2923   1.296   3.258  10.248 -0.5413 -2.1031  0.7066
  494SOL    HW2 2924   1.286   3.294  10.102  1.0452  0.9491  1.2683
  495SOL     OW 2925   0.506   3.287   1.312  0.5545 -0.7535 -0.0056
  495SOL    HW1 2926   0.433   3.300   1.251 -1.1246  1.9109  2.3234
  495SOL    HW2 2927   0.479   3.212   1.366 -0.7605  0.4624  1.1073
  496SOL     OW 2928   4.021   7.607   3.774  0.3509  0.2786  0.4139
  496SOL    HW1 2929   3.985   7.519   3.763 -0.1807  0.6257 -0.8129
  496SOL    HW2 2930   4.101   7.595   3.824  1.1172 -1.0960 -1.0642
  497SOL     OW 2931   2.378   0.282  11.671  0.1182  0.2067  0.0808
  497SOL    HW1 2932   2.289   0.261  11.700  0.8923 -0.8845  1.7993
  497SOL    HW2 2933   2.379   0.259  11.578 -0.9977 -1.1523  0.3759
  498SOL     OW 2934   4.077   6.520   5.649 -0.1569  0.4497  0.1054
  498SOL    HW1 2935   4.094   6.576   5.573  1.3890  0.1048  0.1565
  498SOL    HW2 2936   4.132   6.556   5.718  0.4892 -0.8147  0.2788
  499SOL     OW 2937   3.728   1.430   0.459  0.0566 -1.0436  0.2515
  499SOL    HW1 2938   3.734   1.525   0.447 -1.0241 -1.0233 -0.3288
  499SOL    HW2 2939   3.808   1.395   0.420  0.1107 -0.4151 -0.2172
  500SOL     OW 2940   3.154   1.816   6.501 -0.1929 -0.0338 -0.0799
  500SOL    HW1 2941   3.145   1.830   6.407  0.0454  0.9127  0.0293
  500SOL    HW2 2942   3.201   1.733   6.509 -2.9125 -1.7918 -0.7541
  501SOL     OW 2943   7.567   3.180   9.789  0.0825  0.0183 -0.3613
  501SOL    HW1 2944   7.528   3.194   9.875 -2.3674  0.9155 -1.5315
  501SOL    HW2 2945   7.519   3.106   9.752  0.8760 -0.1560 -1.0803
  502SOL     OW 2946   6.547   0.736   8.483  0.2786  0.0222  0.0532
  502SOL    HW1 2947   6.568   0.825   8.455 -2.2499  1.1702  1.5566
  502SOL    HW2 2948   6.456   0.739   8.510  0.8458 -2.3701  2.7558
  503SOL     OW 2949   2.192   5.232  11.773  0.1343  0.0693 -0.2273
  503SOL    HW1 2950   2.236   5.283  11.705  1.0698  0.5878  0.7342
  503SOL    HW2 2951   2.137   5.294  11.819  0.5207  0.0191  0.3181
  504SOL     OW 2952   4.320   0.126   7.488  0.0208 -0.1622  0.1818
  504SOL    HW1 2953   4.378   0.111   7.563  0.4217 -0.6587 -0.2153
  504SOL    HW2 2954   4.238   0.083   7.512  0.3909 -0.9808  0.0427
  505SOL     OW 2955   3.440   0.405   6.257  0.1978 -0.6961 -0.0604
  505SOL    HW1 2956   3.407   0.402   6.347 -0.4424 -0.0854 -0.2615
  505SOL    HW2 2957   3.486   0.321   6.246  0.1787 -0.8345  0.7876
  506SOL     OW 2958   3.273   5.591   1.047  0.5824 -0.4969  0.0218
  506SOL    HW1 2959   3.226   5.509   1.030 -1.6693  0.5733  0.6043
  506SOL    HW2 2960   3.312   5.614   0.963 -0.0899 -1.3822 -0.5534
  507SOL     OW 2961   4.920   3.376   9.732  0.2394 -0.3145  0.5230
  507SOL    HW1 2962   4.922   3.295   9.681  1.2117  0.1352 -0.1967
  507SOL    HW2 2963   4.847   3.365   9.793 -0.7727 -0.9946 -0.7619
  508SOL     OW 2964   1.648   1.896  11.610 -0.1015  0.0481 -0.2007
  508SOL    HW1 2965   1.597   1.974  11.588 -1.1781 -0.4508  0.4382
  508SOL    HW2 2966   1.646   1.843  11.530  0.0384  0.3474 -0.4065
  509SOL     OW 2967   3.590   3.786   0.013 -0.1688 -0.4681 -0.2962
  509SOL    HW1 2968   3.628   3.851  -0.046 -0.1080  1.5492  1.8118
  509SOL    HW2 2969   3.663   3.759   0.069 -0.5991 -0.9908  0.0239
  510SOL     OW 2970   5.461   5.242   9.427 -0.0757  0.4083  0.4217
  510SOL    HW1 2971   5.544   5.201   9.402  1.0302  2.5489  0.3929
  510SOL    HW2 2972   5.447   5.311   9.363 -1.2827  0.8664  1.1378
  511SOL     OW 2973   2.278   7.702   7.501 -0.0745 -0.3859  0.1339
  511SOL    HW1 2974   2.257   7.764   7.572  0.6542 -1.9741  1.8148
  511SOL    HW2 2975   2.372   7.714   7.486 -0.3056  0.2360 -0.8938
  512SOL     OW 2976   0.212   1.733   1.327 -0.0904  0.0167  0.5399
  512SOL    HW1 2977   0.190   1.734   1.234 -1.5440  1.4313  0.8525
  512SOL    HW2 2978   0.177   1.816   1.361  1.3038  0.0055  2.1517
  513SOL     OW 2979   3.182   3.502   0.385  0.3272 -0.3699  0.2335
  513SOL    HW1 2980   3.271   3.531   0.404  1.0154 -1.9451 -0.4000
  513SOL    HW2 2981   3.191   3.444   0.310 -0.8228 -2.5760  1.6722
  514SOL     OW 2982   6.012   6.457  10.496 -0.4407 -0.2632  0.5592
  514SOL    HW1 2983   6.073   6.453  10.569  2.2856  0.8714 -1.4811
  514SOL    HW2 2984   5.961   6.537  10.512  1.4210  1.0368  0.3892
  515SOL     OW 2985   1.599   0.151   7.837 -0.2718 -0.1503 -0.1392
  515SOL    HW1 2986   1.563   0.142   7.925 -1.9395  1.3391 -0.5879
  515SOL    HW2 2987   1.551   0.087   7.785  0.5487 -0.8692 -0.0323
  516SOL     OW 2988   7.271   6.535   4.461 -0.5348  0.1282 -0.5292
  516SOL    HW1 2989   7.236   6.609   4.510 -1.4557  0.5401 -1.7659
  516SOL    HW2 2990   7.366   6.544   4.468 -0.6424  0.5404  0.6063
  517SOL     OW 2991   3.052   4.873   2.553  0.1398  0.0663 -0.3130
  517SOL    HW1 2992   3.011   4.804   2.499 -0.7645  0.5563 -0.2763
  517SOL    HW2 2993   3.048   4.839   2.642  0.0549 -0.0046 -0.3436
  518SOL     OW 2994   4.171   3.869   2.403 -0.6159  0.3191  0.0336
  518SOL    HW1 2995   4.157   3.777   2.382 -0.6981  0.4693 -0.5947
  518SOL    HW2 2996   4.160   3.874   2.498  1.2773 -0.6566  0.3546
  519SOL     OW 2997   0.789   6.583   7.108  0.1200 -0.1676 -0.3275
  519SOL    HW1 2998   0.736   6.533   7.170 -0.6821  1.3873  0.3149
  519SOL    HW2 2999   0.761   6.553   7.022 -0.4882 -0.6792  0.0412
  520SOL     OW 3000   3.839   7.165   2.267  0.1394  0.0074 -0.1184
  520SOL    HW1 3001   3.888   7.154   2.348  1.6238  0.1394 -0.9611
  520SOL    HW2 3002   3.844   7.259   2.248 -2.0614  0.3478  0.7302
  521SOL     OW 3003   2.104   2.238   0.374  0.3684 -0.7627  0.3016
  521SOL    HW1 3004   2.131   2.157   0.418  0.1192 -0.3671  1.2125
  521SOL    HW2 3005   2.009   2.240   0.386 -0.0150 -1.6841 -2.0772
  522SOL     OW 3006   1.072   1.584   4.519 -0.4179 -0.2420  0.1471
  522SOL    HW1 3007   1.042   1.568   4.430  0.1569  0.5692 -0.2059
  522SOL    HW2 3008   1.012   1.534   4.575  0.3418 -2.3292 -0.7825
  523SOL     OW 3009   5.288   1.439   5.117  0.3349  0.3594 -0.3408
  523SOL    HW1 3010   5.208   1.462   5.164  0.0450  0.6686 -0.9610
  523SOL    HW2 3011   5.262   1.442   5.024  0.6348 -1.1806 -0.4872
  524SOL     OW 3012   3.350   4.287   5.252 -0.0814  0.6717 -0.2310
  524SOL    HW1 3013   3.375   4.195   5.249  0.6711  0.7872  1.5450
  524SOL    HW2 3014   3.334   4.310   5.161  0.4814 -1.0045 -0.7900
  525SOL     OW 3015   4.217   7.861   5.520  0.3043 -0.7879 -0.0275
  525SOL    HW1 3016   4.257   7.838   5.437 -0.7870 -1.2239 -0.4477
  525SOL    HW2 3017   4.141   7.803   5.528 -0.4202  0.1902  0.6057
  526SOL     OW 3018   1.678   0.309   2.014  0.3871 -0.1857  0.3801
  526SOL    HW1 3019   1.746   0.298   1.948 -0.1115  1.3575 -0.4409
  526SOL    HW2 3020   1.685   0.401   2.041 -0.8553 -0.2041  0.8422
  527SOL     OW 3021   4.988   3.388   0.294 -0.0952 -0.3519  0.0089
  527SOL    HW1 3022   5.020   3.450   0.359  3.9105 -2.5665  0.4961
  527SOL    HW2 3023   5.034   3.411   0.213 -0.2639 -1.3106 -0.3846
  528SOL     OW 3024   0.381   3.048   6.517  0.2078  0.0834  0.0131
  528SOL    HW1 3025   0.361   3.045   6.611  0.4564  0.2020  0.0710
  528SOL    HW2 3026   0.392   3.141   6.498 -0.0250  0.0714 -0.1726
  529SOL     OW 3027   1.383   3.245   4.957 -0.1657 -0.2654  0.4217
  529SOL    HW1 3028   1.291   3.259   4.934 -0.1716 -1.4980 -0.4176
  529SOL    HW2 3029   1.423   3.332   4.949 -1.5639  0.6630  2.5134
  530SOL     OW 3030   3.962   4.369   7.813 -0.0719 -0.0449  0.5797
  530SOL    HW1 3031   3.934   4.415   7.734  0.9263 -0.6476 -0.1413
  530SOL    HW2 3032   3.884   4.321   7.841 -0.3327 -0.1226 -0.2489
  531SOL     OW 3033   7.894   1.146  11.246 -0.2564  0.0673 -0.4001
  531SOL    HW1 3034   7.990   1.144  11.255 -0.3290  1.1167  0.9597
  531SOL    HW2 3035   7.877   1.095  11.168  1.4974  0.6434 -1.2307
  532SOL     OW 3036   4.830   5.363   9.369  0.3781  0.2035  0.1254
  532SOL    HW1 3037   4.802   5.278   9.334  1.3840  0.6205 -1.7838
  532SOL    HW2 3038   4.748   5.404   9.398 -0.4981 -0.2772 -1.5223
  533SOL     OW 3039   5.066   5.408   7.852 -0.0115 -0.1211 -0.3058
  533SOL    HW1 3040   5.154   5.371   7.841  0.0389  0.2592 -1.3310
  533SOL    HW2 3041   5.080   5.498   7.881 -0.0735 -0.1512 -0.1800
  534SOL     OW 3042   7.726   0.398   3.344  0.3866 -0.6058  0.3386
  534SOL    HW1 3043   7.764   0.310   3.341  0.5950 -0.5480  1.1225
  534SOL    HW2 3044   7.733   0.424   3.436  0.0306  0.1030  0.1708
  535SOL     OW 3045   6.490   6.550  10.050  0.3542 -0.3206 -0.5333
  535SOL    HW1 3046   6.573   6.534  10.096 -0.7187  0.0100  1.6444
  535SOL    HW2 3047   6.431   6.482  10.083 -0.7833  0.6314 -0.5554
  536SOL     OW 3048   7.128   1.042   2.369  0.2099 -0.6585 -0.3867
  536SOL    HW1 3049   7.119   1.024   2.462  0.7670  1.7957  0.2085
  536SOL    HW2 3050   7.160   1.132   2.365 -1.1534 -0.2014 -2.9806
  537SOL     OW 3051   1.838   6.848   6.617  0.1365  0.6730  0.0454
  537SOL    HW1 3052   1.918   6.879   6.659 -0.1216  1.9380 -0.3583
  537SOL    HW2 3053   1.844   6.881   6.527 -0.5285  0.2159 -0.1698
  538SOL     OW 3054   0.189   1.984  12.033  0.1785  0.0073 -0.0729
  538SOL    HW1 3055   0.157   1.990  12.123 -1.2077  0.7119 -0.5851
  538SOL    HW2 3056   0.283   1.971  12.042  0.1790  0.8314  1.4823
  539SOL     OW 3057   1.816   1.309   7.426 -0.0507 -0.4108  0.1029
  539SOL    HW1 3058   1.737   1.335   7.474 -0.2971 -0.7372 -0.1260
  539SOL    HW2 3059   1.827   1.378   7.361 -0.3911 -0.5894 -0.1447
  540SOL     OW 3060   2.308   5.254  10.370 -0.2145  0.2279 -0.1749
  540SOL    HW1 3061   2.274   5.186  10.312 -0.1125  0.5103 -0.5710
  540SOL    HW2 3062   2.233   5.310  10.390 -0.1425  0.4265 -0.4537
  541SOL     OW 3063   1.657   2.662  10.291  0.2107 -0.1702  0.3221
  541SOL    HW1 3064   1.575   2.695  10.327  1.4469  1.8868  1.4389
  541SOL    HW2 3065   1.680   2.587  10.346 -0.7826 -0.6325  0.1251
  542SOL     OW 3066   6.942   5.807   4.627 -0.5243 -0.0007  0.1286
  542SOL    HW1 3067   6.882   5.818   4.701 -0.5802  2.4044 -0.2063
  542SOL    HW2 3068   7.028   5.829   4.663 -0.3385 -0.1657 -0.2075
  543SOL     OW 3069   0.542   1.768   3.575  0.1335  0.2545  0.5302
  543SOL    HW1 3070   0.613   1.768   3.512 -0.1014  1.6316  0.2141
  543SOL    HW2 3071   0.550   1.685   3.622  1.0368 -0.2563 -0.4946
  544SOL     OW 3072   7.633   7.648   3.871 -0.7016 -0.0953  0.3016
  544SOL    HW1 3073   7.609   7.609   3.787  1.5252 -1.9482  0.4246
  544SOL    HW2 3074   7.598   7.588   3.936 -1.1010  0.5132  0.6521
  545SOL     OW 3075   0.733   4.997   1.769 -0.1711 -0.3876  0.0464
  545SOL    HW1 3076   0.706   5.059   1.700 -0.0967 -0.1213  0.2549
  545SOL    HW2 3077   0.783   4.931   1.722  0.5320  0.2024 -0.0512
  546SOL     OW 3078   3.432   2.670  10.976  0.0896  0.0736 -0.4967
  546SOL    HW1 3079   3.348   2.695  11.015  0.7986  0.6479  0.7482
  546SOL    HW2 3080   3.487   2.748  10.986  1.3873 -0.9287  0.5753
  547SOL     OW 3081   4.242   3.828   4.569 -1.1197  0.3109 -0.3728
  547SOL    HW1 3082   4.238   3.818   4.474 -0.6963 -0.4769 -0.3184
  547SOL    HW2 3083   4.162   3.876   4.591 -1.5616 -0.0880 -1.0569
  548SOL     OW 3084   6.280   2.916   1.098 -0.5975 -0.3299  0.1471
  548SOL    HW1 3085   6.235   2.970   1.034  0.0623 -1.8815 -1.7080
  548SOL    HW2 3086   6.340   2.862   1.047  1.5942 -0.0928  2.2647
  549SOL     OW 3087   2.632   1.329   3.819 -0.1124  0.5699  0.6399
  549SOL    HW1 3088   2.636   1.404   3.878  0.9826  0.6900  0.4424
  549SOL    HW2 3089   2.587   1.361   3.741  4.1658  2.4794 -1.3668
  550SOL     OW 3090   1.922   0.629   9.420  0.2684  0.2152 -0.2073
  550SOL    HW1 3091   1.879   0.563   9.474  0.7303  0.6759  0.7466
  550SOL    HW2 3092   1.866   0.636   9.342 -0.4718 -0.3801  0.2580
  551SOL     OW 3093   7.147   7.151  11.508  0.1334 -0.0295  0.0490
  551SOL    HW1 3094   7.095   7.071  11.498 -0.1315  0.2074 -0.5051
  551SOL    HW2 3095   7.105   7.197  11.581 -1.2451  0.7539 -1.1695
  552SOL     OW 3096   6.297   4.770   5.615 -0.1465  0.2887 -0.0462
  552SOL    HW1 3097   6.218   4.783   5.668 -0.1826 -0.1040 -0.0022
  552SOL    HW2 3098   6.334   4.857   5.606 -0.9362  0.5794 -0.6083
  553SOL     OW 3099   0.626   5.364   4.933 -0.1868  0.5502 -0.0218
  553SOL    HW1 3100   0.537   5.348   4.963 -0.4726 -1.8142 -1.7904
  553SOL    HW2 3101   0.670   5.404   5.007 -1.9095 -1.1211  2.0256
  554SOL     OW 3102   1.384   0.512  11.918 -0.1832  0.4131 -0.3172
  554SOL    HW1 3103   1.415   0.464  11.995  0.1709  0.7171 -0.2651
  554SOL    HW2 3104   1.463   0.534  11.870 -0.4773 -0.9078 -1.4719
  555SOL     OW 3105   6.847   0.794   4.562  0.4469 -0.3599  0.0761
  555SOL    HW1 3106   6.935   0.815   4.594  0.5900 -0.5919 -0.1567
  555SOL    HW2 3107   6.830   0.859   4.493  1.1475 -1.3642 -1.0875
  556SOL     OW 3108   1.940   6.607  12.388 -0.3898  0.2764 -0.1141
  556SOL    HW1 3109   1.993   6.604  12.467  2.5066  0.8539 -1.8811
  556SOL    HW2 3110   1.901   6.694  12.388  1.1932  1.0270 -0.2097
  557SOL     OW 3111   5.104   1.469   9.880 -0.3666 -0.2788  0.0540
  557SOL    HW1 3112   5.063   1.388   9.911  0.4445 -1.0770 -0.8934
  557SOL    HW2 3113   5.117   1.455   9.786 -0.9934  1.3074 -0.2912
  558SOL     OW 3114   7.498   4.753   2.055  0.4119  0.4314 -0.3968
  558SOL    HW1 3115   7.487   4.718   2.144  0.2351  0.9306 -0.2145
  558SOL    HW2 3116   7.456   4.689   1.998 -2.9762  1.8813  0.1924
  559SOL     OW 3117   2.867   4.176   2.068  0.0954  0.1530 -0.5129
  559SOL    HW1 3118   2.839   4.245   2.128 -0.2065  0.1982 -0.6997
  559SOL    HW2 3119   2.896   4.223   1.989 -0.4265  0.0578 -0.7680
  560SOL     OW 3120   6.071   2.008  12.321  0.2102 -0.2249 -0.1373
  560SOL    HW1 3121   6.054   2.101  12.306  1.4010 -0.0733 -0.7170
  560SOL    HW2 3122   5.986   1.966  12.313 -0.1944  0.6939 -0.9295
  561SOL     OW 3123   4.277   5.748   7.078 -0.3748  0.9305 -0.7589
  561SOL    HW1 3124   4.332   5.761   7.155 -1.3507 -1.5091  0.4636
  561SOL    HW2 3125   4.304   5.664   7.043 -1.7393  0.7736 -1.5122
  562SOL     OW 3126   5.516   1.025   6.292 -0.4460  0.4056  0.2600
  562SOL    HW1 3127   5.423   1.044   6.298 -0.5047 -0.0006  0.6670
  562SOL    HW2 3128   5.556   1.107   6.262 -0.9891  0.4333 -0.4040
  563SOL     OW 3129   5.786   0.523   9.740 -0.1700 -0.3321 -0.2826
  563SOL    HW1 3130   5.758   0.431   9.737  1.5818 -0.8857 -0.9323
  563SOL    HW2 3131   5.829   0.532   9.825  1.3681 -0.6781 -0.9953
  564SOL     OW 3132   4.784   3.257   6.347  0.0810 -0.1001 -0.0148
  564SOL    HW1 3133   4.854   3.321   6.340  0.6684 -0.6462  0.6291
  564SOL    HW2 3134   4.734   3.265   6.266  0.1734  1.1198  0.0401
  565SOL     OW 3135   5.110   5.448   5.080  0.1527  0.2643  0.2465
  565SOL    HW1 3136   5.040   5.504   5.045  1.0462  0.1347 -1.8853
  565SOL    HW2 3137   5.101   5.366   5.033  0.2380 -0.6490  1.7596
  566SOL     OW 3138   2.011   1.001  11.166  0.0843  0.5159 -0.3774
  566SOL    HW1 3139   2.055   0.997  11.081  0.3323 -0.7812 -0.2119
  566SOL    HW2 3140   1.970   0.915  11.175 -2.6644  1.7303 -0.5936
  567SOL     OW 3141   3.649   3.926  11.213  0.0390 -0.0668 -0.2147
  567SOL    HW1 3142   3.659   3.933  11.118  1.6838  0.2474 -0.0599
  567SOL    HW2 3143   3.668   4.015  11.245  0.6136 -0.4229  0.4666
  568SOL     OW 3144   4.400   7.373  10.466 -0.2914 -0.0828 -0.2055
  568SOL    HW1 3145   4.326   7.430  10.451 -1.8452 -1.6371  1.1355
  568SOL    HW2 3146   4.422   7.384  10.558 -0.1098 -1.0398 -0.1163
  569SOL     OW 3147   0.574   3.962   5.590  1.3008  0.0644  0.9225
  569SOL    HW1 3148   0.575   3.867   5.602 -0.0274 -0.0844  0.1163
  569SOL    HW2 3149   0.503   3.992   5.647 -2.3092 -0.1914 -2.9435
  570SOL     OW 3150   2.330   7.889   9.511  0.0915 -0.1322 -0.0423
  570SOL    HW1 3151   2.245   7.898   9.554  0.0622  1.6562 -0.4147
  570SOL    HW2 3152   2.392   7.935   9.568  0.7505 -0.9974 -0.0262
  571SOL     OW 3153   3.094   2.465   2.640  0.0518  0.6084  0.0209
  571SOL    HW1 3154   3.184   2.457   2.671  0.5660  4.0979 -0.1248
  571SOL    HW2 3155   3.101   2.453   2.545 -0.3729 -2.8864  0.3051
  572SOL     OW 3156   0.651   0.431   3.447 -0.0010  0.7435 -0.0976
  572SOL    HW1 3157   0.731   0.429   3.395  0.8121 -1.3343  1.1213
  572SOL    HW2 3158   0.581   0.418   3.383  0.8338  0.2114 -0.9277
  573SOL     OW 3159   2.482   1.689  11.594 -0.2918 -0.4605  0.0432
  573SOL    HW1 3160   2.415   1.622  11.578  1.0349 -1.3669 -2.2299
  573SOL    HW2 3161   2.554   1.665  11.536  0.2859  2.9110 -0.8524
  574SOL     OW 3162   4.803   4.406   5.958  0.1276 -0.1777  0.3648
  574SOL    HW1 3163   4.827   4.390   5.866 -0.2203  0.4849  0.1509
  574SOL    HW2 3164   4.767   4.495   5.958 -0.9645 -0.6069  0.9391
  575SOL     OW 3165   2.470   2.490  10.052 -0.1803  0.3978  0.0349
  575SOL    HW1 3166   2.397   2.453  10.003 -0.1182  0.6611 -0.2562
  575SOL    HW2 3167   2.450   2.469  10.144 -2.1019  2.9009  0.2989
  576SOL     OW 3168   0.169   3.932   0.695  0.0924  0.0041  0.9285
  576SOL    HW1 3169   0.210   4.017   0.709 -2.5335  1.3530  0.9636
  576SOL    HW2 3170   0.168   3.891   0.782  2.2455 -0.5458  0.7364
  577SOL     OW 3171   5.743   7.152  12.388 -1.0990  0.0042  0.4766
  577SOL    HW1 3172   5.797   7.079  12.358 -1.1322  0.1813 -0.0407
  577SOL    HW2 3173   5.700   7.184  12.308  0.3494  1.7607  0.3236
  578SOL     OW 3174   2.520   6.525   0.546  0.2620 -0.6511 -0.1976
  578SOL    HW1 3175   2.518   6.432   0.571 -1.6171 -0.0560  2.2142
  578SOL    HW2 3176   2.567   6.568   0.617 -0.0368  0.4181 -0.6328
  579SOL     OW 3177   2.565   2.689   1.156  0.3123 -0.3885  0.1543
  579SOL    HW1 3178   2.656   2.694   1.186 -0.0904 -0.4937  1.4649
  579SOL    HW2 3179   2.517   2.652   1.230 -0.8646 -0.0020 -0.3801
  580SOL     OW 3180   2.616   3.909  10.798  0.7547 -0.2178 -0.1472
  580SOL    HW1 3181   2.582   3.994  10.826 -0.3529 -0.7231  0.1083
  580SOL    HW2 3182   2.684   3.931  10.734  1.1396  0.8747  0.6043
  581SOL     OW 3183   2.169   5.773   9.832  0.3723  0.0739  0.9297
  581SOL    HW1 3184   2.186   5.777   9.738 -0.7883  0.9689  0.7327
  581SOL    HW2 3185   2.246   5.813   9.872  0.5432  0.3780  0.3109
  582SOL     OW 3186   1.469   4.171   0.551 -0.5080  0.5078  0.0695
  582SOL    HW1 3187   1.378   4.181   0.579 -1.0302 -0.8589 -1.0284
  582SOL    HW2 3188   1.475   4.220   0.470 -0.9535 -1.3532 -1.1390
  583SOL     OW 3189   6.917   6.014  11.253  0.5167  0.0737  0.1695
  583SOL    HW1 3190   6.888   6.088  11.306  1.6395  0.2976  0.5047
  583SOL    HW2 3191   6.977   6.053  11.189 -0.7813 -0.1943 -1.2680
  584SOL     OW 3192   1.920   1.954   9.421  0.1397 -0.2780  0.0835
  584SOL    HW1 3193   2.001   1.937   9.372  0.6645  0.0804  0.8128
  584SOL    HW2 3194   1.874   2.020   9.369 -0.5117 -1.7037 -1.2235
  585SOL     OW 3195   1.058   6.461   4.585  0.6582  0.2554 -0.4662
  585SOL    HW1 3196   1.027   6.547   4.558 -0.8733 -0.8379 -2.5299
  585SOL    HW2 3197   1.153   6.464   4.572  0.3996  1.0051 -2.6033
  586SOL     OW 3198   2.955   0.457   3.399  0.2393 -0.0260 -0.1632
  586SOL    HW1 3199   3.000   0.539   3.383  0.4388 -0.0483  0.2752
  586SOL    HW2 3200   3.005   0.392   3.350 -0.6406  0.2993 -1.5326
  587SOL     OW 3201   5.792   2.230   5.401 -0.3680  0.2055 -0.4506
  587SOL    HW1 3202   5.846   2.293   5.448 -0.1115  0.3341 -0.9128
  587SOL    HW2 3203   5.782   2.267   5.314  0.4928 -0.7813 -1.0012
  588SOL     OW 3204   5.510   2.538   7.988 -0.1473 -0.4984 -0.2178
  588SOL    HW1 3205   5.487   2.476   8.058 -0.0198  0.1700  0.4336
  588SOL    HW2 3206   5.454   2.613   8.004  0.9560  0.2816  0.0896
  589SOL     OW 3207   3.001   2.140   7.215  0.1209 -0.2352  0.0793
  589SOL    HW1 3208   2.983   2.137   7.309 -1.3948  1.7926 -0.0638
  589SOL    HW2 3209   2.997   2.234   7.193  1.0411 -0.6012 -1.9067
  590SOL     OW 3210   0.128   4.123   2.049 -0.0529 -0.0357 -1.0325
  590SOL    HW1 3211   0.210   4.171   2.044  0.1487 -0.3173 -0.5116
  590SOL    HW2 3212   0.147   4.048   2.106  0.0988 -1.6689 -3.1373
  591SOL     OW 3213   5.729   2.909   9.774  0.2949  0.1609  0.0026
  591SOL    HW1 3214   5.676   2.916   9.854 -1.2269  1.0894 -1.0411
  591SOL    HW2 3215   5.685   2.966   9.711  0.0885 -2.2697 -2.2235
  592SOL     OW 3216   2.731   4.111  11.592  0.4343  0.0854 -0.2623
  592SOL    HW1 3217   2.727   4.045  11.523  0.4167  0.3239 -0.4892
  592SOL    HW2 3218   2.811   4.089  11.641  0.0635 -0.5194  0.0874
  593SOL     OW 3219   1.582   1.781  11.317  0.1768 -0.0424  0.1449
  593SOL    HW1 3220   1.672   1.766  11.346  0.5596 -0.3531 -1.1343
  593SOL    HW2 3221   1.565   1.712  11.254 -1.0924 -0.1867  0.6048
  594SOL     OW 3222   5.746   3.423   4.327  0.2506 -0.3681 -0.0941
  594SOL    HW1 3223   5.666   3.429   4.275 -0.0793  1.0410  0.5243
  594SOL    HW2 3224   5.815   3.455   4.268  0.1894 -0.5959 -0.2900
  595SOL     OW 3225   7.375   7.826  11.329 -0.2260 -0.0663  0.0236
  595SOL    HW1 3226   7.313   7.786  11.390  0.9351 -1.9713  0.0411
  595SOL    HW2 3227   7.372   7.769  11.252  1.6565 -0.3451  0.1221
  596SOL     OW 3228   4.986   3.258  12.080 -0.2889  0.2966  0.5836
  596SOL    HW1 3229   5.048   3.213  12.137 -1.3277 -0.9748  0.7594
  596SOL    HW2 3230   4.916   3.194  12.065  0.1501  0.3770 -2.4774
  597SOL     OW 3231   7.958   4.523   2.606  0.0937 -0.0401 -0.1803
  597SOL    HW1 3232   7.926   4.591   2.666 -1.1993  0.4476 -1.3622
  597SOL    HW2 3233   7.902   4.448   2.623 -0.0281 -0.0244 -0.5037
  598SOL     OW 3234   3.308   0.850   3.344 -0.0250 -0.3072 -0.1430
  598SOL    HW1 3235   3.360   0.799   3.406  0.8758 -0.0678 -0.6854
  598SOL    HW2 3236   3.277   0.925   3.395  1.4427  0.3580 -0.1796
  599SOL     OW 3237   5.685   4.975   4.270  0.1407 -0.3461  0.0898
  599SOL    HW1 3238   5.767   4.940   4.234 -0.4883 -1.5269 -0.2304
  599SOL    HW2 3239   5.670   4.924   4.349 -1.0238 -1.1634 -0.6263
  600SOL     OW 3240   6.012   7.446   2.140 -0.6236 -0.4435  0.5496
  600SOL    HW1 3241   6.050   7.520   2.093 -0.7544 -1.3131 -0.9798
  600SOL    HW2 3242   6.077   7.376   2.130 -0.7709 -0.7247  1.4719
  601SOL     OW 3243   4.612   6.050   5.536  0.0288  0.0158  0.1839
  601SOL    HW1 3244   4.544   6.005   5.486 -0.6788 -0.6196  1.6592
  601SOL    HW2 3245   4.585   6.142   5.535  0.0126  0.0124 -0.5549
  602SOL     OW 3246   5.193   7.944   8.647 -0.5369  0.2968 -0.0018
  602SOL    HW1 3247   5.252   7.904   8.711  0.2515 -1.0928 -1.5218
  602SOL    HW2 3248   5.251   7.986   8.584 -1.1434 -0.9360 -1.4327
  603SOL     OW 3249   1.053   5.052   8.352  0.2870  0.6917  0.0183
  603SOL    HW1 3250   0.971   5.024   8.310  0.7235 -0.0941 -0.3209
  603SOL    HW2 3251   1.079   5.130   8.302  0.8741 -0.3084 -1.2918
  604SOL     OW 3252   4.663   0.852   1.618  0.4065  0.2143  0.1037
  604SOL    HW1 3253   4.637   0.765   1.591 -1.0504  0.5487  0.3285
  604SOL    HW2 3254   4.713   0.887   1.545 -0.1133 -0.3339 -0.5203
  605SOL     OW 3255   7.351   0.935  10.021 -0.5753 -0.6269 -0.1550
  605SOL    HW1 3256   7.386   1.019   9.990  0.1630 -1.0175 -0.4222
  605SOL    HW2 3257   7.417   0.904  10.083 -1.1071 -0.7617  0.3505
  606SOL     OW 3258   7.111   6.021   4.146  0.4152 -0.0171 -0.1810
  606SOL    HW1 3259   7.180   6.068   4.192  0.2301  1.1310 -1.0123
  606SOL    HW2 3260   7.093   6.075   4.069  1.1151 -2.1496 -1.9247
  607SOL     OW 3261   2.729   6.692  10.501 -0.0653 -0.2006 -0.1273
  607SOL    HW1 3262   2.729   6.697  10.596 -0.0631 -1.2638 -0.0613
  607SOL    HW2 3263   2.689   6.774  10.473  0.6994  0.4969  0.7553
  608SOL     OW 3264   6.244   5.078   9.813 -0.1239 -0.5220  0.4477
  608SOL    HW1 3265   6.176   5.128   9.767  0.3930  0.6848  0.9583
  608SOL    HW2 3266   6.304   5.050   9.744  0.3838  0.8640  0.2963
  609SOL     OW 3267   0.041   4.042   0.100 -0.2629 -0.6742 -0.0537
  609SOL    HW1 3268   0.078   3.972   0.154  1.0598 -1.3673 -1.7660
  609SOL    HW2 3269   0.111   4.065   0.040 -1.4076  0.6471 -0.9367
  610SOL     OW 3270   7.396   1.216   7.151  0.1886  0.2692  0.1499
  610SOL    HW1 3271   7.428   1.305   7.161 -0.6109  0.4157  1.7519
  610SOL    HW2 3272   7.456   1.163   7.203  0.5527 -0.1127 -0.6486
  611SOL     OW 3273   5.374   6.201  10.801 -0.4981  0.5767  0.1381
  611SOL    HW1 3274   5.430   6.246  10.864  0.9835 -1.6772  0.5712
  611SOL    HW2 3275   5.291   6.189  10.847  0.0750  0.2834  1.1154
  612SOL     OW 3276   2.147   4.679   2.177 -1.2266 -0.0274  0.2739
  612SOL    HW1 3277   2.053   4.678   2.160 -0.7946 -0.4606 -2.4705
  612SOL    HW2 3278   2.185   4.624   2.108  1.3662  3.2702 -1.2154
  613SOL     OW 3279   6.954   3.770  10.373 -0.1376 -0.4656  0.1182
  613SOL    HW1 3280   6.880   3.711  10.363 -0.9357  0.6956 -1.4581
  613SOL    HW2 3281   6.967   3.807  10.285 -0.0780  2.1046  1.1064
  614SOL     OW 3282   3.311   0.090   4.957  0.1656  0.6134 -0.0164
  614SOL    HW1 3283   3.269   0.119   5.038  0.3704  1.2549 -0.1371
  614SOL    HW2 3284   3.344   0.003   4.977 -1.2562  0.0704  0.0730
  615SOL     OW 3285   4.396   7.495   5.460 -0.1563  0.5223 -0.3207
  615SOL    HW1 3286   4.351   7.560   5.405  0.8512  1.3167 -0.2371
  615SOL    HW2 3287   4.383   7.528   5.549  0.3588  0.6032 -0.2776
  616SOL     OW 3288   0.485   5.335  12.114 -0.2591  0.0767 -0.3973
  616SOL    HW1 3289   0.413   5.308  12.172 -1.1469  1.2950 -0.8975
  616SOL    HW2 3290   0.564   5.304  12.159 -0.9605  0.3587  1.1175
  617SOL     OW 3291   3.382   4.669   9.821  0.1515  0.0555 -0.3287
  617SOL    HW1 3292   3.474   4.643   9.824 -0.2068 -1.2961 -0.3597
  617SOL    HW2 3293   3.357   4.660   9.729 -0.2169 -0.3368 -0.1933
  618SOL     OW 3294   0.934   0.389   9.564  0.2697 -0.3270 -0.3928
  618SOL    HW1 3295   0.893   0.462   9.517  1.2060 -0.0268 -0.7604
  618SOL    HW2 3296   0.879   0.378   9.642  1.2581  2.1841  0.7977
  619SOL     OW 3297   7.445   6.293  11.921 -0.3658  0.2158 -0.2951
  619SOL    HW1 3298   7.458   6.211  11.968 -1.3168 -0.1619 -0.6619
  619SOL    HW2 3299   7.354   6.316  11.937 -0.8474 -0.1368 -2.2245
  620SOL     OW 3300   1.579   3.571   7.314 -0.5149 -0.3034  0.1548
  620SOL    HW1 3301   1.599   3.644   7.256  0.8643  0.2678  1.2983
  620SOL    HW2 3302   1.540   3.504   7.257  0.9669  0.1573 -1.4505
  621SOL     OW 3303   2.859   7.478  11.858 -0.0101  0.1852  0.2552
  621SOL    HW1 3304   2.912   7.469  11.779 -0.6363 -0.1791 -0.1339
  621SOL    HW2 3305   2.785   7.533  11.831  1.4870  3.0118  1.4672
  622SOL     OW 3306   6.502   4.414   7.603 -0.1503 -0.4870  0.5010
  622SOL    HW1 3307   6.453   4.465   7.667  1.0308  2.0866 -0.5199
  622SOL    HW2 3308   6.584   4.393   7.647  1.6829  3.2950 -0.7009
  623SOL     OW 3309   4.825   2.415   0.954 -0.0601  0.1621 -0.2730
  623SOL    HW1 3310   4.740   2.371   0.951 -0.2211  0.4954 -0.7442
  623SOL    HW2 3311   4.851   2.412   1.046  0.2188 -1.4717 -0.3624
  624SOL     OW 3312   1.782   5.467   6.891 -0.2466 -0.0063  0.3122
  624SOL    HW1 3313   1.749   5.556   6.884 -0.1843 -0.0464 -0.6603
  624SOL    HW2 3314   1.797   5.453   6.985 -1.4986  0.5468  0.6023
  625SOL     OW 3315   2.609   6.637   5.106  0.6527  0.1342 -0.3003
  625SOL    HW1 3316   2.696   6.656   5.072  1.1123  0.5803  1.0371
  625SOL    HW2 3317   2.624   6.568   5.171 -0.1337 -0.4407 -0.7114
  626SOL     OW 3318   6.616   4.755  10.189 -0.4730  0.4412  0.1246
  626SOL    HW1 3319   6.688   4.700  10.157 -0.4172  0.5327  0.0907
  626SOL    HW2 3320   6.566   4.699  10.248  0.0290  0.5875  0.6940
  627SOL     OW 3321   3.691   6.644   4.830 -0.0860 -0.4980 -0.1522
  627SOL    HW1 3322   3.601   6.626   4.803 -0.0647 -1.0806  0.1503
  627SOL    HW2 3323   3.733   6.558   4.832  0.4970 -0.2245 -0.3556
  628SOL     OW 3324   1.442   1.650   0.766 -0.2462  0.1017  0.1024
  628SOL    HW1 3325   1.441   1.626   0.859 -1.0592  0.4349  0.1904
  628SOL    HW2 3326   1.504   1.722   0.761 -1.0131  0.8231  0.5952
  629SOL     OW 3327   6.000   5.310   4.162 -0.2566 -0.1322  0.3162
  629SOL    HW1 3328   6.037   5.255   4.231  2.1371  0.5487 -0.3107
  629SOL    HW2 3329   5.908   5.287   4.159  0.4983 -3.7766  0.4083
  630SOL     OW 3330   4.501   4.750   7.491 -0.7117  0.4282 -0.0090
  630SOL    HW1 3331   4.585   4.754   7.446 -1.1374  0.2916 -0.8465
  630SOL    HW2 3332   4.493   4.834   7.536  0.5012 -0.1067  1.2745
  631SOL     OW 3333   1.023   3.690   3.468  0.0035  0.0306 -0.4548
  631SOL    HW1 3334   1.086   3.750   3.429  0.7181 -1.9553 -2.5793
  631SOL    HW2 3335   1.076   3.620   3.506 -0.7988  0.6719  2.0738
  632SOL     OW 3336   2.473   3.808  11.163 -0.2666  0.4017  0.4112
  632SOL    HW1 3337   2.428   3.772  11.239 -1.4017 -0.4968 -0.6424
  632SOL    HW2 3338   2.550   3.851  11.199 -0.7674 -0.0074  2.0598
  633SOL     OW 3339   2.748   6.868  11.709 -0.3681  0.3173 -0.4047
  633SOL    HW1 3340   2.717   6.778  11.723 -1.4633  0.7236 -0.0585
  633SOL    HW2 3341   2.835   6.870  11.748  0.4956 -1.0889 -2.1031
  634SOL     OW 3342   1.478   7.123   1.113  0.4378  0.1216 -0.0493
  634SOL    HW1 3343   1.442   7.195   1.165  0.2709  0.0150 -0.0148
  634SOL    HW2 3344   1.482   7.157   1.024  0.8303  0.3438  0.0501
  635SOL     OW 3345   6.134   2.432   6.049  0.1615  0.0765  0.2220
  635SOL    HW1 3346   6.153   2.519   6.084 -0.9571  0.3942  0.0757
  635SOL    HW2 3347   6.219   2.399   6.018  0.6116  1.0563  0.3897
  636SOL     OW 3348   4.278   7.613   6.177 -0.1302 -0.2126 -0.1634
  636SOL    HW1 3349   4.261   7.643   6.088  0.8655  0.5562 -0.1144
  636SOL    HW2 3350   4.241   7.525   6.180  0.3035 -0.4715 -1.5118
  637SOL     OW 3351   1.873   0.329   0.810  0.2951  0.1041 -0.2648
  637SOL    HW1 3352   1.798   0.385   0.790  0.1816  0.6325  1.4819
  637SOL    HW2 3353   1.898   0.292   0.725 -0.9724  1.1055 -1.1239
  638SOL     OW 3354   2.399   6.519   4.374  0.4166  0.2893 -0.0932
  638SOL    HW1 3355   2.350   6.529   4.455  1.5963 -1.3412  0.8849
  638SOL    HW2 3356   2.391   6.604   4.330 -1.3379  0.7855  1.0804
  639SOL     OW 3357   7.095   3.055   6.595  0.5067 -0.1419  0.1215
  639SOL    HW1 3358   7.185   3.022   6.595  1.5064  2.4164  0.6176
  639SOL    HW2 3359   7.044   2.982   6.632  2.3924 -1.5180  0.1905
  640SOL     OW 3360   5.291   1.194   5.755  0.4734 -0.2841  0.0733
  640SOL    HW1 3361   5.362   1.131   5.769  0.8731  0.1777  0.1421
  640SOL    HW2 3362   5.293   1.210   5.661  0.0481 -0.7446 -0.0197
  641SOL     OW 3363   4.528   7.005   5.891  0.1887  0.5695 -0.0566
  641SOL    HW1 3364   4.468   7.076   5.914 -0.3465  0.2195 -0.3585
  641SOL    HW2 3365   4.493   6.969   5.810  0.1996 -0.3309  0.3290
  642SOL     OW 3366   4.934   1.091   2.381  0.0471 -0.0524  0.5447
  642SOL    HW1 3367   4.921   1.184   2.367  0.2036 -0.0168  0.6264
  642SOL    HW2 3368   4.872   1.068   2.450 -2.4241 -0.7230 -1.7385
  643SOL     OW 3369   7.089   4.337   5.097  0.1120 -0.3372  0.1415
  643SOL    HW1 3370   7.027   4.341   5.024  1.9451 -0.7039 -1.5579
  643SOL    HW2 3371   7.045   4.287   5.165 -0.8198 -2.1253 -1.6759
  644SOL     OW 3372   3.207   7.413   1.692 -0.0138  0.4975 -0.0493
  644SOL    HW1 3373   3.254   7.402   1.609  0.8312  0.6300  0.4049
  644SOL    HW2 3374   3.250   7.352   1.752 -0.5433  0.4940  0.3338
  645SOL     OW 3375   2.301   6.582   7.168 -0.4376  0.4476  0.0657
  645SOL    HW1 3376   2.304   6.495   7.128  2.0135  0.4988  0.0139
  645SOL    HW2 3377   2.278   6.566   7.259  0.8196 -0.3571  0.2562
  646SOL     OW 3378   2.943   2.592   2.879 -0.3283  0.1993  0.2869
  646SOL    HW1 3379   2.944   2.530   2.806  1.6966 -0.2857  0.6690
  646SOL    HW2 3380   2.856   2.632   2.876 -1.5274 -2.2945 -0.2607
  647SOL     OW 3381   7.883   7.592   2.794  0.0250  0.0464  0.2477
  647SOL    HW1 3382   7.800   7.639   2.790 -0.1434 -0.1734  0.9930
  647SOL    HW2 3383   7.898   7.562   2.704 -0.1059  1.0937 -0.1460
  648SOL     OW 3384   0.233   2.766   9.317 -0.4174  0.0813  0.0856
  648SOL    HW1 3385   0.290   2.689   9.316 -0.6857 -0.1282  0.5801
  648SOL    HW2 3386   0.218   2.785   9.225  1.7045  1.0928 -0.1195
  649SOL     OW 3387   3.403   2.952   4.576 -0.2385  0.5011  0.2563
  649SOL    HW1 3388   3.356   2.897   4.637 -0.5238  1.4885  0.9547
  649SOL    HW2 3389   3.348   2.954   4.497 -0.3878  0.0646  0.3516
  650SOL     OW 3390   2.427   1.341  11.000 -0.5236  0.5661  0.2244
  650SOL    HW1 3391   2.397   1.328  10.911 -2.9625  0.5072  0.9727
  650SOL    HW2 3392   2.432   1.436  11.010  1.3010  0.5614 -0.4080
  651SOL     OW 3393   5.870   3.294   9.762  0.3917  0.0982 -0.7060
  651SOL    HW1 3394   5.911   3.245   9.833  1.0006 -0.6953 -1.5826
  651SOL    HW2 3395   5.785   3.322   9.797  0.7819 -0.0771  0.4010
  652SOL     OW 3396   1.038   1.127  11.896 -0.6128  0.2138 -0.4397
  652SOL    HW1 3397   0.964   1.141  11.838 -0.0819  0.2677 -1.1238
  652SOL    HW2 3398   1.115   1.145  11.842 -0.1273  2.1185  0.7732
  653SOL     OW 3399   6.861   1.696   7.126  0.7736  0.0369  0.6749
  653SOL    HW1 3400   6.921   1.678   7.198  1.5881  1.3832  0.3860
  653SOL    HW2 3401   6.778   1.717   7.168  0.9942 -0.0914  1.1795
  654SOL     OW 3402   4.051   7.343  10.918  0.6643 -0.2737  0.4511
  654SOL    HW1 3403   4.056   7.254  10.881  1.8751  0.0857 -0.3087
  654SOL    HW2 3404   3.963   7.349  10.954 -0.1718 -1.0756 -1.3366
  655SOL     OW 3405   1.630   1.844   9.475 -0.4681  0.3028 -0.3106
  655SOL    HW1 3406   1.699   1.893   9.430  0.1997  0.9507  1.3355
  655SOL    HW2 3407   1.639   1.754   9.444 -0.1737  0.7564 -1.5892
  656SOL     OW 3408   2.178   4.099   0.281  0.2602 -0.3157 -0.3756
  656SOL    HW1 3409   2.231   4.129   0.355 -0.7591 -1.0523  0.6996
  656SOL    HW2 3410   2.242   4.072   0.215  1.2338 -0.7203  0.6949
  657SOL     OW 3411   0.727   2.649  10.250  0.4342  0.4203 -0.3422
  657SOL    HW1 3412   0.770   2.598  10.319 -0.8206 -1.8082 -1.0996
  657SOL    HW2 3413   0.635   2.653  10.277 -0.3160 -1.4584 -2.3160
  658SOL     OW 3414   4.806   7.769   0.328  0.4564 -0.1201  0.6306
  658SOL    HW1 3415   4.863   7.751   0.403 -0.7007  1.1041  1.8636
  658SOL    HW2 3416   4.795   7.864   0.330  0.5131 -0.0576 -1.1937
  659SOL     OW 3417   2.238   3.991   1.160  0.1703 -0.3906 -0.3807
  659SOL    HW1 3418   2.293   4.066   1.137  0.4049 -0.8830 -1.5092
  659SOL    HW2 3419   2.169   3.991   1.094  0.5365 -1.5264 -0.7889
  660SOL     OW 3420   1.251   1.236   9.492 -0.4560  0.3867  0.0513
  660SOL    HW1 3421   1.335   1.282   9.497 -0.4461  0.3008  0.7550
  660SOL    HW2 3422   1.208   1.256   9.576 -0.8861 -0.0539 -0.0625
  661SOL     OW 3423   1.563   6.747   9.522 -0.2198 -0.6722 -0.2082
  661SOL    HW1 3424   1.528   6.688   9.588  2.0162 -0.2692  1.4447
  661SOL    HW2 3425   1.578   6.830   9.568  0.6366 -0.1188 -1.4140
  662SOL     OW 3426   7.100   1.082   7.405 -0.0999  0.4285  0.1578
  662SOL    HW1 3427   7.029   1.100   7.467 -0.3572  0.4765 -0.1499
  662SOL    HW2 3428   7.063   1.018   7.344 -0.3766  1.5492 -0.8899
  663SOL     OW 3429   2.856   7.930   0.327  0.0375  0.1372  0.0291
  663SOL    HW1 3430   2.882   8.014   0.290  0.5520 -0.1457 -0.2772
  663SOL    HW2 3431   2.845   7.873   0.251 -1.5307  0.2423  0.1443
  664SOL     OW 3432   0.270   6.779   2.245  0.1318 -0.1617  0.3521
  664SOL    HW1 3433   0.357   6.820   2.247  0.2554 -0.4469  1.0098
  664SOL    HW2 3434   0.288   6.686   2.228  0.1735 -0.7411  3.1318
  665SOL     OW 3435   4.619   4.465   0.168 -0.6662 -0.5501 -0.8531
  665SOL    HW1 3436   4.664   4.381   0.161 -0.9356 -0.6984 -0.7983
  665SOL    HW2 3437   4.569   4.474   0.087 -2.9764 -1.8070  0.3305
  666SOL     OW 3438   7.357   7.279   4.448 -0.2137 -0.0542  0.1009
  666SOL    HW1 3439   7.345   7.237   4.363 -0.0008  0.7933 -0.3538
  666SOL    HW2 3440   7.437   7.240   4.483 -0.4311 -0.5795  0.0253
  667SOL     OW 3441   3.419   6.116   5.508  0.0836  0.0688 -0.0797
  667SOL    HW1 3442   3.426   6.203   5.546  0.0575 -0.1064  0.3307
  667SOL    HW2 3443   3.501   6.073   5.530 -0.5069 -0.5169  1.0205
  668SOL     OW 3444   0.401   0.054  11.283 -0.2616  0.3291  0.2251
  668SOL    HW1 3445   0.417   0.148  11.274  1.6581  0.0618  0.3641
  668SOL    HW2 3446   0.452   0.015  11.212 -1.5292 -0.5886 -0.2078
  669SOL     OW 3447   7.507   3.513  11.177  0.6279 -0.0443 -0.0817
  669SOL    HW1 3448   7.563   3.464  11.116  1.3939  0.2610  0.3555
  669SOL    HW2 3449   7.542   3.602  11.175  1.3080 -0.2348  1.5141
  670SOL     OW 3450   3.902   0.055   5.802  0.3934 -0.3996  0.2099
  670SOL    HW1 3451   3.911   0.088   5.892  0.9093 -0.5356  0.2111
  670SOL    HW2 3452   3.936  -0.034   5.806  1.3745 -0.0656 -0.3276
  671SOL     OW 3453   2.142   3.397   9.849  0.1418  0.8917 -0.0070
  671SOL    HW1 3454   2.236   3.405   9.865  0.1954 -0.2401  0.3024
  671SOL    HW2 3455   2.128   3.437   9.764  0.9143  1.0128 -0.0767
  672SOL     OW 3456   6.063   5.536   5.591  0.8584 -0.2675  0.3029
  672SOL    HW1 3457   6.137   5.541   5.530 -0.6705  2.1686 -1.5213
  672SOL    HW2 3458   6.017   5.457   5.565  1.8422 -0.8718  0.3209
  673SOL     OW 3459   0.329   6.514   9.911  0.1952  0.1601 -0.0942
  673SOL    HW1 3460   0.261   6.576   9.884 -0.6133 -1.3046 -1.6245
  673SOL    HW2 3461   0.295   6.428   9.885  0.8791 -1.0816  2.7106
  674SOL     OW 3462   1.905   5.301   5.007 -0.1683  0.1151 -0.4678
  674SOL    HW1 3463   1.878   5.275   4.919 -0.2946  0.9027 -0.6729
  674SOL    HW2 3464   1.937   5.221   5.047  0.2829 -0.1707 -1.3781
  675SOL     OW 3465   0.454   2.065   1.981 -0.1808  0.2635 -0.4937
  675SOL    HW1 3466   0.519   2.069   1.911 -1.2638  0.1156 -1.5406
  675SOL    HW2 3467   0.466   1.979   2.020  1.1802  0.7711  0.2778
  676SOL     OW 3468   2.009   5.542   5.117 -0.1493  0.6366 -0.2260
  676SOL    HW1 3469   1.971   5.599   5.050  2.7107 -0.3679 -2.9097
  676SOL    HW2 3470   2.007   5.455   5.079  0.9566 -0.1066  1.2898
  677SOL     OW 3471   1.047   7.718  10.239  0.6475  0.1753  0.3136
  677SOL    HW1 3472   1.097   7.641  10.215 -0.6749 -0.5792 -0.1554
  677SOL    HW2 3473   1.013   7.699  10.326 -1.3170 -0.7028 -0.5706
  678SOL     OW 3474   0.391   0.693   8.172  0.1122 -0.8001 -0.0326
  678SOL    HW1 3475   0.464   0.750   8.196  0.0628 -0.6715 -0.1769
  678SOL    HW2 3476   0.313   0.746   8.190  0.0508 -1.0126  0.3091
  679SOL     OW 3477   3.020   0.424   6.375 -0.2568 -0.2720 -0.2658
  679SOL    HW1 3478   2.974   0.507   6.366 -0.0315 -0.1171 -0.0130
  679SOL    HW2 3479   2.968   0.362   6.324 -2.0669 -0.6319  1.9176
  680SOL     OW 3480   1.592   0.761   7.757 -0.5096  0.5062  0.6831
  680SOL    HW1 3481   1.549   0.675   7.750 -0.3011  0.3846  0.9010
  680SOL    HW2 3482   1.674   0.751   7.709 -0.8309  0.8142  0.0509
  681SOL     OW 3483   5.693   3.305   7.783  0.4152 -0.0943  0.3869
  681SOL    HW1 3484   5.616   3.275   7.831  0.5538 -1.5874 -0.2521
  681SOL    HW2 3485   5.766   3.285   7.841  0.3617  1.2851  0.9760
  682SOL     OW 3486   6.839   5.614   8.174 -0.1846 -0.0908  0.7240
  682SOL    HW1 3487   6.799   5.680   8.230 -4.7090 -1.8863 -0.0105
  682SOL    HW2 3488   6.852   5.658   8.090 -0.8546  0.5063  0.9295
  683SOL     OW 3489   5.476   7.615   7.375 -0.0442  0.0294  0.2366
  683SOL    HW1 3490   5.474   7.704   7.339 -1.3658 -0.3899 -0.8056
  683SOL    HW2 3491   5.433   7.623   7.460  2.8803  0.9801  1.7858
  684SOL     OW 3492   4.463   3.703   1.449  0.3006  0.3565 -0.4453
  684SOL    HW1 3493   4.446   3.644   1.376  0.0724  1.0500 -0.9588
  684SOL    HW2 3494   4.384   3.697   1.503  0.6786 -0.5494  0.0335
  685SOL     OW 3495   4.825   4.863   1.762 -0.4638 -0.6557 -0.1532
  685SOL    HW1 3496   4.856   4.772   1.767 -0.0229 -0.4725  0.7221
  685SOL    HW2 3497   4.899   4.915   1.791 -0.6172  0.0177 -0.9427
  686SOL     OW 3498   5.688   7.169   7.330 -0.7823 -0.3449 -0.2104
  686SOL    HW1 3499   5.656   7.259   7.334 -0.8692 -0.4244  1.3229
  686SOL    HW2 3500   5.613   7.116   7.357 -0.6401 -0.8653 -0.8119
  687SOL     OW 3501   0.819   1.954  11.883 -0.0542 -0.0404 -0.8730
  687SOL    HW1 3502   0.872   1.970  11.805  0.2110 -0.5530 -0.8019
  687SOL    HW2 3503   0.874   1.983  11.956 -0.6577  1.2918 -0.9320
  688SOL     OW 3504   6.477   1.452  11.012  0.0513 -0.2592 -0.2055
  688SOL    HW1 3505   6.448   1.465  10.921  2.2540  1.0941 -0.7966
  688SOL    HW2 3506   6.498   1.359  11.017 -0.5798 -0.4545 -0.9079
  689SOL     OW 3507   6.303   2.006  10.598  0.0963  0.0822 -0.2610
  689SOL    HW1 3508   6.321   1.929  10.653  1.0164  0.6958  0.3182
  689SOL    HW2 3509   6.210   2.024  10.611 -0.7479 -2.2964 -2.1843
  690SOL     OW 3510   6.414   3.905  11.109  0.3778  0.0857 -0.2016
  690SOL    HW1 3511   6.398   3.930  11.018  0.3007 -0.4967 -0.3492
  690SOL    HW2 3512   6.464   3.824  11.103  0.0373 -0.1646  0.2809
  691SOL     OW 3513   2.679   6.302   1.439 -0.3232  0.3919  0.0972
  691SOL    HW1 3514   2.736   6.346   1.375 -0.2223 -0.1240 -0.1786
  691SOL    HW2 3515   2.617   6.253   1.385 -0.8053  0.6691  0.4012
  692SOL     OW 3516   0.459   7.186  10.330  0.5979 -0.1228 -0.2642
  692SOL    HW1 3517   0.374   7.170  10.290 -0.8346  0.3780  2.3316
  692SOL    HW2 3518   0.521   7.189  10.257 -1.8083  0.8973 -2.3886
  693SOL     OW 3519   5.955   4.054   8.061  0.3722 -0.3165 -0.1486
  693SOL    HW1 3520   5.960   3.995   7.985 -0.2936  0.6653 -0.9767
  693SOL    HW2 3521   5.989   4.137   8.030  0.7103 -0.0747  0.8300
  694SOL     OW 3522   1.756   5.116  10.578 -0.0110  0.3024  0.4450
  694SOL    HW1 3523   1.714   5.197  10.607 -0.0045 -0.2072  1.9623
  694SOL    HW2 3524   1.839   5.113  10.626  0.2040 -0.3708  0.0407
  695SOL     OW 3525   2.247   5.439   3.520 -0.0142  0.3152 -0.1226
  695SOL    HW1 3526   2.183   5.488   3.572 -0.1718 -1.1166  1.1043
  695SOL    HW2 3527   2.195   5.373   3.475  0.3548  0.4486 -0.7582
  696SOL     OW 3528   0.740   0.530   5.082  0.2432  0.2333 -0.3501
  696SOL    HW1 3529   0.753   0.592   5.010  0.2183  3.0643  1.8922
  696SOL    HW2 3530   0.826   0.524   5.124 -0.0497 -0.2977  0.1858
  697SOL     OW 3531   5.292   6.991  10.017 -0.3435  0.1764  0.0011
  697SOL    HW1 3532   5.321   6.932   9.948  1.4785  0.7675  0.1979
  697SOL    HW2 3533   5.197   6.995  10.008 -0.4539 -2.2348 -0.4264
  698SOL     OW 3534   2.267   3.613   2.926 -0.0635 -0.0222 -0.0506
  698SOL    HW1 3535   2.175   3.638   2.914  0.0966  0.4491 -0.3576
  698SOL    HW2 3536   2.302   3.678   2.987  0.6447  1.2510 -1.7159
  699SOL     OW 3537   3.022   2.172   6.171  0.4538  0.5673 -0.1816
  699SOL    HW1 3538   3.062   2.234   6.110 -0.3449  1.1087 -0.1694
  699SOL    HW2 3539   3.085   2.100   6.177  2.0183  1.9451  0.7923
  700SOL     OW 3540   4.997   0.884   6.867 -0.3677 -0.4667  0.1425
  700SOL    HW1 3541   4.977   0.970   6.905 -0.7719 -0.9259  1.0084
  700SOL    HW2 3542   4.936   0.876   6.793 -2.3366 -1.1534  1.7498
  701SOL     OW 3543   2.855   5.744   9.670 -0.3104 -0.1300 -0.3084
  701SOL    HW1 3544   2.918   5.754   9.599 -0.1666 -0.5395 -0.2421
  701SOL    HW2 3545   2.772   5.725   9.626 -0.5228  0.9815 -0.4221
  702SOL     OW 3546   3.968   6.623   8.619  0.0043  0.5399  0.4011
  702SOL    HW1 3547   3.968   6.583   8.532  0.8107 -0.8888  1.0215
  702SOL    HW2 3548   3.891   6.585   8.662  1.0341 -0.7865  1.1528
  703SOL     OW 3549   3.217   1.960  10.869 -0.1808 -0.4649  0.0459
  703SOL    HW1 3550   3.250   1.985  10.956  1.3489 -0.4550 -0.5000
  703SOL    HW2 3551   3.174   2.038  10.836 -0.7286 -0.4483  0.7565
  704SOL     OW 3552   3.061   3.589   2.418  0.2373 -0.3536 -0.0011
  704SOL    HW1 3553   3.004   3.665   2.409  1.5763  0.6500 -0.2576
  704SOL    HW2 3554   3.085   3.588   2.511  1.1375  0.2291 -0.2215
  705SOL     OW 3555   3.347   0.824   3.713  0.3261  0.4336 -0.1622
  705SOL    HW1 3556   3.332   0.766   3.787  1.7811  0.1853 -0.0161
  705SOL    HW2 3557   3.326   0.911   3.745  2.1170  0.4961  0.9940
  706SOL     OW 3558   7.652   5.318   9.936  0.5292  0.2245 -0.2533
  706SOL    HW1 3559   7.581   5.258   9.912  0.2976 -0.0456  1.0331
  706SOL    HW2 3560   7.727   5.286   9.885  0.8708 -2.2943  1.6233
  707SOL     OW 3561   2.355   3.298   9.281  0.6778 -0.0719 -0.1554
  707SOL    HW1 3562   2.360   3.276   9.374  0.3023  0.4281 -0.0097
  707SOL    HW2 3563   2.375   3.217   9.236  0.1256 -0.5102  0.3645
  708SOL     OW 3564   6.110   5.165   6.436  0.1367 -0.0260  0.0375
  708SOL    HW1 3565   6.020   5.155   6.405  0.2253 -1.3224  0.1197
  708SOL    HW2 3566   6.105   5.140   6.529  0.8745 -2.0088 -0.3973
  709SOL     OW 3567   6.137   2.222   0.906 -0.4518 -0.1293  1.0690
  709SOL    HW1 3568   6.218   2.247   0.861 -0.0719  0.1838  1.9037
  709SOL    HW2 3569   6.166   2.182   0.988 -1.1379  0.5958  1.6908
  710SOL     OW 3570   0.134   5.053   6.177 -0.2342 -0.6009 -0.9149
  710SOL    HW1 3571   0.083   5.044   6.097 -1.9459  2.1626 -0.2661
  710SOL    HW2 3572   0.118   4.972   6.225 -1.0271 -1.3238 -2.3314
  711SOL     OW 3573   3.983   7.720   5.859  0.6041 -0.0693 -0.1127
  711SOL    HW1 3574   3.998   7.627   5.844  1.4171 -0.2948  1.8094
  711SOL    HW2 3575   4.041   7.742   5.932  0.3424  1.9219 -0.4599
  712SOL     OW 3576   6.268   5.374  10.864  0.5600  0.1229  0.0529
  712SOL    HW1 3577   6.360   5.399  10.872  0.9203 -0.6554 -1.3028
  712SOL    HW2 3578   6.219   5.455  10.880  1.5478  0.9067 -0.7720
  713SOL     OW 3579   0.171   1.640   3.390  0.5372  0.0535 -0.4854
  713SOL    HW1 3580   0.145   1.551   3.413 -0.9676  0.6112  0.0871
  713SOL    HW2 3581   0.101   1.672   3.333 -0.3423  1.7674  1.4406
  714SOL     OW 3582   7.819   2.211   6.791  1.2127 -0.3423  0.3895
  714SOL    HW1 3583   7.827   2.163   6.708  2.2620  0.1031  0.2124
  714SOL    HW2 3584   7.786   2.146   6.853 -0.7301 -0.3884 -0.6137
  715SOL     OW 3585   3.389   4.659   2.469 -0.2723 -0.1878  0.2485
  715SOL    HW1 3586   3.368   4.706   2.550  1.5186 -0.6585  1.0437
  715SOL    HW2 3587   3.446   4.587   2.498  0.9526  0.0274 -1.4939
  716SOL     OW 3588   2.224   5.274  12.355 -0.3815 -0.2325 -0.2697
  716SOL    HW1 3589   2.306   5.265  12.403  0.5111  1.3579 -1.3682
  716SOL    HW2 3590   2.239   5.228  12.272 -0.5244  0.1772 -0.5330
  717SOL     OW 3591   0.904   4.059   2.666 -0.3546  0.0736 -0.2432
  717SOL    HW1 3592   0.992   4.093   2.680 -0.1281 -0.7022  0.2992
  717SOL    HW2 3593   0.848   4.112   2.722  0.0497 -0.6549  0.8916
  718SOL     OW 3594   2.324   5.393   1.382  0.1947  0.2017 -0.4637
  718SOL    HW1 3595   2.340   5.461   1.448  1.5175 -1.1899  0.7284
  718SOL    HW2 3596   2.231   5.374   1.389  0.4621 -0.6454  1.8564
  719SOL     OW 3597   5.589   6.389   9.469 -0.1092  0.4339  0.1912
  719SOL    HW1 3598   5.647   6.372   9.395 -1.0465  2.5215 -1.0976
  719SOL    HW2 3599   5.645   6.430   9.535  0.4596 -0.2440  0.1417
  720SOL     OW 3600   6.455   6.089  11.340  0.7048  0.0850  0.1098
  720SOL    HW1 3601   6.491   6.005  11.366  2.2665  0.9342  0.8172
  720SOL    HW2 3602   6.387   6.107  11.405  1.3578  0.0277  0.8254
  721SOL     OW 3603   3.475   3.603   0.689  0.2717  0.6212  0.1097
  721SOL    HW1 3604   3.486   3.549   0.610  1.9251  0.8826  0.1263
  721SOL    HW2 3605   3.417   3.552   0.745 -0.8172  0.3581 -1.2030
  722SOL     OW 3606   1.251   0.599   5.856 -0.2195  0.4895  0.4081
  722SOL    HW1 3607   1.216   0.594   5.767  3.6299 -0.3400 -1.2887
  722SOL    HW2 3608   1.219   0.682   5.890 -1.3768  1.1287 -1.9955
  723SOL     OW 3609   3.002   4.612   7.935  0.3581  0.0289  0.3486
  723SOL    HW1 3610   2.946   4.631   7.859  0.1055 -0.9111  0.2874
  723SOL    HW2 3611   3.022   4.518   7.927 -0.4317 -0.3087  1.9358
  724SOL     OW 3612   2.670   4.709   8.321  0.5891 -0.0691 -0.0651
  724SOL    HW1 3613   2.632   4.627   8.289  0.7677  0.1645 -0.9018
  724SOL    HW2 3614   2.730   4.736   8.251  0.5153  0.7812  0.1910
  725SOL     OW 3615   2.297   5.435   7.074 -0.5956  0.8169 -0.5710
  725SOL    HW1 3616   2.266   5.423   6.984 -1.0442  1.5581 -0.5173
  725SOL    HW2 3617   2.237   5.499   7.112 -0.9531 -0.1465  0.5432
  726SOL     OW 3618   3.725   6.969  11.271 -0.3760 -0.5364  0.1108
  726SOL    HW1 3619   3.779   7.031  11.319 -0.9159  0.6055 -0.6954
  726SOL    HW2 3620   3.766   6.884  11.287  1.1916  0.1846  0.1523
  727SOL     OW 3621   5.228   2.928   7.225  0.4310  0.7491 -0.2804
  727SOL    HW1 3622   5.300   2.984   7.254 -0.5042  1.4648  0.7711
  727SOL    HW2 3623   5.162   2.989   7.193 -0.0197  0.1518 -0.5071
  728SOL     OW 3624   0.585   4.496   2.925  0.2404  0.4984  0.0578
  728SOL    HW1 3625   0.576   4.557   2.852  0.5836 -0.0144 -0.4235
  728SOL    HW2 3626   0.520   4.428   2.907  0.4013  0.3132  0.1749
  729SOL     OW 3627   3.990   6.196   9.598 -0.0273 -0.1571 -0.1439
  729SOL    HW1 3628   3.917   6.238   9.553 -0.4388  0.7582  1.3216
  729SOL    HW2 3629   4.064   6.256   9.585 -0.2867  0.3913  0.8437
  730SOL     OW 3630   2.893   2.572   7.114 -0.8314 -0.2684 -0.3054
  730SOL    HW1 3631   2.913   2.665   7.106  0.8625 -0.6922 -1.3703
  730SOL    HW2 3632   2.957   2.539   7.178 -1.8613 -0.6031  0.5912
  731SOL     OW 3633   0.630   5.883   6.729  0.0537 -0.9597 -0.0046
  731SOL    HW1 3634   0.677   5.840   6.801 -0.1679 -1.5531 -0.2143
  731SOL    HW2 3635   0.672   5.969   6.721  0.7447 -1.2791  0.1684
  732SOL     OW 3636   1.541   2.775   4.836  0.3835 -0.1229 -0.5268
  732SOL    HW1 3637   1.451   2.806   4.849 -0.5143 -2.6714 -0.2053
  732SOL    HW2 3638   1.590   2.819   4.905 -1.1506 -0.6848  1.0064
  733SOL     OW 3639   2.113   6.961   0.782  0.2353  0.8049 -0.2713
  733SOL    HW1 3640   2.061   6.881   0.783 -0.3472  1.1495 -1.4331
  733SOL    HW2 3641   2.200   6.933   0.810 -0.4501  0.1468  1.2986
  734SOL     OW 3642   7.727   6.208   6.919 -0.5319  0.1001  0.6109
  734SOL    HW1 3643   7.685   6.154   6.851 -0.0057 -1.0588  1.1811
  734SOL    HW2 3644   7.778   6.146   6.971  0.0526  1.1533  1.3301
  735SOL     OW 3645   1.233   7.311   8.302 -0.2507 -0.2683  0.1091
  735SOL    HW1 3646   1.216   7.221   8.331 -2.0403  0.0182  0.0519
  735SOL    HW2 3647   1.204   7.366   8.375 -1.3442  0.3234 -0.7288
  736SOL     OW 3648   1.453   6.717   6.336  0.1591  0.1123  0.0031
  736SOL    HW1 3649   1.371   6.765   6.345  0.1055 -0.0289  0.2706
  736SOL    HW2 3650   1.491   6.750   6.255 -0.8638 -0.8663 -0.9307
  737SOL     OW 3651   6.547   5.121  11.222 -0.2698 -0.0149  0.1984
  737SOL    HW1 3652   6.598   5.136  11.302  1.3555 -2.9141 -0.1312
  737SOL    HW2 3653   6.576   5.188  11.161  0.1758  0.8170  1.2895
  738SOL     OW 3654   1.731   1.486   1.524  0.0583 -0.0448  0.5719
  738SOL    HW1 3655   1.735   1.559   1.462  2.0966  0.8702  1.7021
  738SOL    HW2 3656   1.641   1.454   1.516 -0.6638  2.0404 -0.5634
  739SOL     OW 3657   6.819   2.516   9.711 -0.0256  0.0300 -0.2887
  739SOL    HW1 3658   6.795   2.596   9.665 -3.2092 -1.0958 -0.8309
  739SOL    HW2 3659   6.775   2.446   9.663 -0.2865 -1.6323  2.1557
  740SOL     OW 3660   6.618   0.205   5.838 -0.0307 -0.3655 -0.1494
  740SOL    HW1 3661   6.690   0.188   5.898 -1.0957  0.2542  1.3737
  740SOL    HW2 3662   6.612   0.126   5.785  1.3678 -0.6657  0.1215
  741SOL     OW 3663   0.131   3.148   1.357  0.1220 -0.4676 -0.1169
  741SOL    HW1 3664   0.080   3.098   1.421  0.6904  0.1403  0.8354
  741SOL    HW2 3665   0.219   3.111   1.362 -0.5929 -3.0951 -3.4057
  742SOL     OW 3666   6.582   2.685  11.334  0.4286 -0.1013  0.2816
  742SOL    HW1 3667   6.647   2.618  11.355  0.8407 -0.2337 -1.2945
  742SOL    HW2 3668   6.519   2.641  11.278  0.0261  0.5249  0.2318
  743SOL     OW 3669   6.894   5.410   4.066 -0.1845  0.1358  0.0512
  743SOL    HW1 3670   6.840   5.471   4.016  1.3402  0.8923 -0.7344
  743SOL    HW2 3671   6.952   5.466   4.117 -0.1589 -0.6669  0.9243
  744SOL     OW 3672   4.282   3.708   3.986  0.6297  0.2964 -0.6784
  744SOL    HW1 3673   4.202   3.656   3.973  0.8683  0.1484 -1.6477
  744SOL    HW2 3674   4.324   3.668   4.062  0.3668 -0.3899 -0.8794
  745SOL     OW 3675   6.054   3.078   7.655 -0.1646 -0.1425  0.0304
  745SOL    HW1 3676   5.982   3.033   7.610  0.5607 -0.4020 -0.8913
  745SOL    HW2 3677   6.035   3.171   7.643  0.5759 -0.1875 -1.7843
  746SOL     OW 3678   1.168   5.588  10.300 -0.6421  0.3300  0.4897
  746SOL    HW1 3679   1.198   5.521  10.238  0.4370 -1.2445  2.5752
  746SOL    HW2 3680   1.075   5.600  10.279 -0.6406 -1.1498 -0.5599
  747SOL     OW 3681   4.795   0.451  10.052  0.4012  0.3068 -0.1351
  747SOL    HW1 3682   4.770   0.538  10.084  1.4000  0.9406 -1.0055
  747SOL    HW2 3683   4.811   0.464   9.959  1.0128 -0.7160 -0.1815
  748SOL     OW 3684   4.976   0.284   2.859 -0.2303 -0.4890 -0.5319
  748SOL    HW1 3685   4.913   0.266   2.929  0.7282  1.5337  0.9504
  748SOL    HW2 3686   4.944   0.364   2.817  1.4252  0.7733  0.4696
  749SOL     OW 3687   1.539   2.627   9.234  0.2916 -0.4638  0.3052
  749SOL    HW1 3688   1.536   2.546   9.184 -0.3866 -0.9576  1.1078
  749SOL    HW2 3689   1.526   2.696   9.169  0.0229 -1.0540 -0.2797
  750SOL     OW 3690   2.602   7.756   9.040 -0.3451 -0.0896  0.6276
  750SOL    HW1 3691   2.581   7.692   8.972  1.0101  1.9204 -1.8674
  750SOL    HW2 3692   2.693   7.781   9.022 -1.5670  4.6158 -0.5332
  751SOL     OW 3693   1.211   1.185   1.369  0.5362 -0.1089 -0.1669
  751SOL    HW1 3694   1.171   1.242   1.434 -0.2624 -0.5069 -0.2982
  751SOL    HW2 3695   1.138   1.133   1.334  1.6125 -3.6192  2.3188
  752SOL     OW 3696   1.840   5.714  11.321  0.0050 -0.0817 -0.3861
  752SOL    HW1 3697   1.779   5.698  11.394 -0.1450 -0.6153 -0.6213
  752SOL    HW2 3698   1.792   5.685  11.244  0.8740 -1.3458 -0.4815
  753SOL     OW 3699   0.422   2.673   2.309 -0.1703  0.4157  0.0257
  753SOL    HW1 3700   0.360   2.601   2.318  1.1316 -0.8517 -0.6814
  753SOL    HW2 3701   0.418   2.697   2.216 -0.8912  1.5701  0.3301
  754SOL     OW 3702   2.597   0.063   5.779  0.0885 -0.2279 -0.0040
  754SOL    HW1 3703   2.657   0.014   5.723  0.5516 -0.7020  0.8791
  754SOL    HW2 3704   2.622   0.037   5.868  0.2956  1.5325  0.4914
  755SOL     OW 3705   5.965   6.749   5.516 -0.4712  0.5053  0.1333
  755SOL    HW1 3706   6.053   6.743   5.553  0.1763 -0.5032 -1.4546
  755SOL    HW2 3707   5.925   6.665   5.536 -0.6778  0.5485 -0.0943
  756SOL     OW 3708   0.780   3.108   6.482  0.0531  0.2360 -0.2607
  756SOL    HW1 3709   0.758   3.148   6.567  0.2067 -0.5683  0.1687
  756SOL    HW2 3710   0.850   3.045   6.502 -1.4070 -1.5928 -0.5592
  757SOL     OW 3711   5.534   2.513  12.257 -0.2782  0.3053 -0.3540
  757SOL    HW1 3712   5.466   2.551  12.312  0.1120  1.8543 -0.8857
  757SOL    HW2 3713   5.555   2.429  12.298 -1.7632  0.2742  0.3932
  758SOL     OW 3714   2.937   4.766   3.408 -1.0074 -0.3933 -0.2221
  758SOL    HW1 3715   3.017   4.744   3.457 -0.8661 -0.0314 -0.2863
  758SOL    HW2 3716   2.948   4.722   3.324 -2.3325 -3.0288  0.8812
  759SOL     OW 3717   0.338   0.832   2.618  0.4086  0.1012 -0.3278
  759SOL    HW1 3718   0.247   0.821   2.644  0.3471  0.3746 -0.4261
  759SOL    HW2 3719   0.360   0.921   2.643  0.6486  0.0377 -0.3078
  760SOL     OW 3720   6.027   2.268  10.801 -0.1370 -0.1362  0.2858
  760SOL    HW1 3721   5.983   2.320  10.734  0.4805 -0.4928 -0.4044
  760SOL    HW2 3722   6.064   2.333  10.861 -0.1825  0.1929 -0.0403
  761SOL     OW 3723   7.387   4.318   2.227 -0.1150 -0.6387 -0.1484
  761SOL    HW1 3724   7.341   4.263   2.163  0.8057 -0.8094 -0.6828
  761SOL    HW2 3725   7.474   4.332   2.189 -0.2474  1.0217  0.0702
  762SOL     OW 3726   0.525   3.716   6.553 -0.0357 -0.7144 -0.2112
  762SOL    HW1 3727   0.577   3.774   6.498 -0.9916 -0.4380 -0.8404
  762SOL    HW2 3728   0.590   3.662   6.598  0.8922  0.9354  0.5230
  763SOL     OW 3729   2.687   0.047  11.557  0.1006  0.0302 -0.0821
  763SOL    HW1 3730   2.640   0.011  11.482  0.0158 -0.8203  0.3725
  763SOL    HW2 3731   2.618   0.070  11.620  0.1355  1.2124 -0.4456
  764SOL     OW 3732   2.812   7.443   7.861 -0.6942 -0.1177  0.1380
  764SOL    HW1 3733   2.777   7.354   7.870  1.7788 -1.0714  1.2719
  764SOL    HW2 3734   2.764   7.495   7.925 -1.9412 -0.7047 -0.2984
  765SOL     OW 3735   6.346   1.538   7.383 -0.1274 -0.0081  0.0434
  765SOL    HW1 3736   6.340   1.569   7.473  0.0575  1.7794 -0.5322
  765SOL    HW2 3737   6.325   1.614   7.329  0.2820 -0.9013 -1.4420
  766SOL     OW 3738   4.693   5.868   1.627  0.2954  0.7034  0.0879
  766SOL    HW1 3739   4.600   5.847   1.629  0.4656 -0.0300  0.8104
  766SOL    HW2 3740   4.737   5.784   1.623  0.9849  0.8703  2.6176
  767SOL     OW 3741   2.450   1.521   2.190 -0.6296 -0.2112  0.9803
  767SOL    HW1 3742   2.369   1.553   2.230 -0.2937  1.6053  0.3301
  767SOL    HW2 3743   2.520   1.561   2.241 -0.1886  0.6849 -0.2681
  768SOL     OW 3744   0.847   0.402   6.191  0.2252  0.5566  0.7933
  768SOL    HW1 3745   0.853   0.340   6.264 -3.8149 -2.0075 -0.7080
  768SOL    HW2 3746   0.886   0.354   6.117  0.7102  1.5109  0.4197
  769SOL     OW 3747   5.217   4.367   7.799 -0.1152  0.3963  0.8129
  769SOL    HW1 3748   5.303   4.326   7.809 -0.0284  0.3599 -0.0235
  769SOL    HW2 3749   5.176   4.357   7.885  0.3068 -0.5244  0.9229
  770SOL     OW 3750   5.352   2.771   9.293  0.1925  0.2668 -0.3206
  770SOL    HW1 3751   5.262   2.801   9.289  0.1522  0.1026 -0.7177
  770SOL    HW2 3752   5.372   2.742   9.204  0.2122 -0.9241  0.0506
  771SOL     OW 3753   4.455   7.148   0.596 -0.4708  0.1881 -0.3652
  771SOL    HW1 3754   4.360   7.141   0.586 -0.5041 -0.2073  0.2069
  771SOL    HW2 3755   4.489   7.067   0.560 -0.3718  0.1973 -0.2923
  772SOL     OW 3756   6.947   5.994   4.853 -0.6308  0.3898  0.0100
  772SOL    HW1 3757   7.038   6.023   4.863  0.0650 -2.0669  1.8586
  772SOL    HW2 3758   6.904   6.022   4.934 -1.0962  0.1945 -0.1656
  773SOL     OW 3759   2.317   5.113   6.725 -0.0688 -0.0735 -0.1435
  773SOL    HW1 3760   2.387   5.121   6.660  0.7927 -2.5791  0.3359
  773SOL    HW2 3761   2.311   5.018   6.741 -3.5297  0.0100 -0.0927
  774SOL     OW 3762   7.431   1.162   6.691  0.5676  0.2730 -0.2051
  774SOL    HW1 3763   7.445   1.078   6.647  0.4328  0.6889 -1.0595
  774SOL    HW2 3764   7.520   1.195   6.706  0.6291  0.9092 -1.7277
  775SOL     OW 3765   3.477   0.448   5.990  0.0928  0.2209 -0.0012
  775SOL    HW1 3766   3.416   0.448   6.064 -0.5720 -0.1966 -0.5386
  775SOL    HW2 3767   3.534   0.522   6.006  0.4469 -0.3145  1.3394
  776SOL     OW 3768   0.052   3.885   1.657 -0.0464  0.0825 -0.0101
  776SOL    HW1 3769   0.042   3.923   1.569 -1.4781  0.7585  0.4173
  776SOL    HW2 3770   0.042   3.791   1.643  1.4656  0.0078 -0.7945
  777SOL     OW 3771   1.841   0.385   9.157  0.1761 -0.2500 -0.1970
  777SOL    HW1 3772   1.924   0.397   9.203 -0.3345  1.0070  0.4325
  777SOL    HW2 3773   1.774   0.407   9.221 -0.5543  2.3392 -1.6988
  778SOL     OW 3774   3.057   5.328   5.016 -0.5053 -0.3738 -0.4095
  778SOL    HW1 3775   3.006   5.344   4.937 -0.1450 -0.2037 -0.6117
  778SOL    HW2 3776   2.992   5.309   5.084 -0.7861 -1.4595 -0.9597
  779SOL     OW 3777   7.435   7.863  12.327  0.0495  0.4219  0.3040
  779SOL    HW1 3778   7.487   7.921  12.382  2.0335 -1.1371  0.1761
  779SOL    HW2 3779   7.373   7.822  12.388 -0.7378  1.8910  0.5481
  780SOL     OW 3780   0.188   6.320  12.068  0.1878  0.0570  0.0910
  780SOL    HW1 3781   0.132   6.386  12.109 -1.2473 -1.2933  0.4158
  780SOL    HW2 3782   0.275   6.336  12.106 -0.4549  0.7479  1.3695
  781SOL     OW 3783   7.702   2.379   2.415  0.1003  0.0335 -0.3668
  781SOL    HW1 3784   7.705   2.289   2.447  1.4316 -0.0182 -0.5879
  781SOL    HW2 3785   7.794   2.402   2.397 -0.1688  1.5521  0.0125
  782SOL     OW 3786   5.867   5.133   6.949  0.3896 -0.2042 -0.0136
  782SOL    HW1 3787   5.904   5.047   6.933  1.4332  0.2207  0.0219
  782SOL    HW2 3788   5.927   5.193   6.905  0.2414  0.5776  0.8222
  783SOL     OW 3789   1.566   4.310   6.675 -0.4790 -0.6768  0.4938
  783SOL    HW1 3790   1.483   4.289   6.719  0.0989 -0.7969  1.5474
  783SOL    HW2 3791   1.546   4.301   6.581 -2.2142  1.2444  0.5870
  784SOL     OW 3792   6.112   2.617   2.798  0.3155  0.2014  0.2882
  784SOL    HW1 3793   6.187   2.596   2.854  0.5541 -0.5485 -0.3106
  784SOL    HW2 3794   6.036   2.598   2.852  0.5455  0.6513  0.7842
  785SOL     OW 3795   6.816   1.968   7.563 -0.2398 -0.0990  0.2208
  785SOL    HW1 3796   6.902   2.012   7.564 -0.2879  0.1069 -1.4413
  785SOL    HW2 3797   6.787   1.976   7.473 -1.0987 -1.9748  0.2933
  786SOL     OW 3798   2.849   4.871   9.733  0.4646 -0.0892  0.1729
  786SOL    HW1 3799   2.791   4.948   9.728 -0.0374 -0.5061 -0.5716
  786SOL    HW2 3800   2.923   4.893   9.677 -0.0051 -0.4123 -0.5884
  787SOL     OW 3801   0.862   4.873   6.175  0.1425  0.0286 -0.0976
  787SOL    HW1 3802   0.877   4.827   6.257  0.7051  0.4856  0.0605
  787SOL    HW2 3803   0.901   4.959   6.187 -1.0297  0.6149 -0.3426
  788SOL     OW 3804   5.103   7.313   4.921  0.4706 -1.1931 -0.4291
  788SOL    HW1 3805   5.064   7.381   4.866 -0.4791 -2.7165 -1.6839
  788SOL    HW2 3806   5.188   7.296   4.881  0.2450 -1.5209 -0.7681
  789SOL     OW 3807   2.741   4.694   6.585  0.4580 -0.5148 -0.4171
  789SOL    HW1 3808   2.669   4.699   6.522  0.8047  1.2340 -0.7143
  789SOL    HW2 3809   2.820   4.705   6.532  0.9483 -1.7992 -0.0109
  790SOL     OW 3810   3.936   4.154   4.440  0.1801 -0.2822 -0.0425
  790SOL    HW1 3811   3.854   4.130   4.397  0.6980 -0.0633 -1.2096
  790SOL    HW2 3812   3.940   4.099   4.518 -0.1994 -1.6457 -0.9499
  791SOL     OW 3813   1.043   4.204  10.540  0.0888  0.1141  0.0606
  791SOL    HW1 3814   1.016   4.114  10.520 -0.3305  0.2933 -0.1810
  791SOL    HW2 3815   0.961   4.252  10.551  0.2659  0.8122 -1.3537
  792SOL     OW 3816   0.980   2.214   5.260  0.7160  0.0683 -0.6629
  792SOL    HW1 3817   0.927   2.142   5.226  1.0982 -0.3411 -0.4099
  792SOL    HW2 3818   1.062   2.208   5.212  1.2165 -0.4466  0.2309
  793SOL     OW 3819   3.665   5.366   1.443  0.4440 -0.1674  0.1813
  793SOL    HW1 3820   3.650   5.333   1.532  1.2236 -1.4917 -0.1621
  793SOL    HW2 3821   3.674   5.461   1.454  1.6887 -0.4207  1.6888
  794SOL     OW 3822   2.726   6.170   5.507  0.3122  0.5799 -0.0752
  794SOL    HW1 3823   2.658   6.104   5.494  1.0094 -0.0314 -0.6628
  794SOL    HW2 3824   2.732   6.179   5.602 -1.3118  1.4123 -0.0066
  795SOL     OW 3825   2.397   2.225   0.665 -0.0652 -0.4256  0.5474
  795SOL    HW1 3826   2.431   2.238   0.577 -0.5641  2.1434  0.6577
  795SOL    HW2 3827   2.470   2.246   0.723  0.7165 -3.5255  0.8350
  796SOL     OW 3828   5.554   3.268  11.045 -0.3532  0.0709  0.1786
  796SOL    HW1 3829   5.508   3.288  11.127  2.4379 -2.7902  2.6717
  796SOL    HW2 3830   5.647   3.275  11.067  0.5303 -2.0886 -2.3669
  797SOL     OW 3831   1.172   4.455   8.329  0.0109  0.6258 -0.6251
  797SOL    HW1 3832   1.170   4.550   8.337 -0.0754  0.5337  0.7938
  797SOL    HW2 3833   1.083   4.427   8.350 -0.1110  0.2547 -1.5879
  798SOL     OW 3834   7.374   2.712  10.604 -0.3186 -0.3769 -0.2969
  798SOL    HW1 3835   7.387   2.756  10.688 -1.0933 -0.5075 -0.1019
  798SOL    HW2 3836   7.458   2.670  10.586  0.0890  0.2654  0.0482
  799SOL     OW 3837   2.411   2.592   5.402 -0.4461  0.3928 -0.4789
  799SOL    HW1 3838   2.498   2.554   5.404 -0.4052  0.4761  1.9116
  799SOL    HW2 3839   2.425   2.686   5.410 -0.7428  0.3660  0.5061
  800SOL     OW 3840   3.665   5.523   9.522 -0.0812 -0.5373  0.2704
  800SOL    HW1 3841   3.626   5.549   9.439 -0.7580  1.0978  1.0523
  800SOL    HW2 3842   3.591   5.515   9.582  0.4401 -1.2390  0.8262
  801SOL     OW 3843   0.964   1.370   7.483 -0.3455  0.4225  0.1321
  801SOL    HW1 3844   0.994   1.451   7.443 -0.1585 -0.6033 -1.9308
  801SOL    HW2 3845   0.937   1.395   7.572  1.6365  2.3364  0.2802
  802SOL     OW 3846   0.891   6.355   4.282  0.0424 -0.5810 -0.1432
  802SOL    HW1 3847   0.904   6.319   4.370 -1.2816  1.2064  0.8638
  802SOL    HW2 3848   0.979   6.359   4.244  0.8585 -0.0777  1.6698
  803SOL     OW 3849   6.948   4.573   0.777  0.4483  0.5724 -0.0854
  803SOL    HW1 3850   6.890   4.552   0.850 -1.7825  0.1833 -1.8383
  803SOL    HW2 3851   6.965   4.489   0.735  2.1650  0.7180  0.2703
  804SOL     OW 3852   0.694   3.238   6.264 -0.6080 -0.3029 -0.4941
  804SOL    HW1 3853   0.611   3.196   6.241  0.8278 -2.8584 -1.4602
  804SOL    HW2 3854   0.725   3.190   6.341  0.9819 -0.9586 -1.4884
  805SOL     OW 3855   2.766   7.710  12.124  0.2449 -1.1699  0.2602
  805SOL    HW1 3856   2.757   7.710  12.029  0.2169 -0.4698  0.2581
  805SOL    HW2 3857   2.855   7.677  12.140  0.0632 -1.7989  0.0238
  806SOL     OW 3858   3.435   7.827   8.527 -0.3724  0.4536 -0.1043
  806SOL    HW1 3859   3.440   7.922   8.522 -0.8726  0.4343 -1.2150
  806SOL    HW2 3860   3.382   7.801   8.451 -1.6133 -0.6078  1.0742
  807SOL     OW 3861   7.495   5.290   0.775  0.1631 -0.2098 -0.1816
  807SOL    HW1 3862   7.512   5.309   0.867  0.9621 -0.1514 -0.3289
  807SOL    HW2 3863   7.573   5.323   0.729 -0.5563  0.4480 -0.9632
  808SOL     OW 3864   1.656   4.613   4.571  0.1230 -0.1811  0.7825
  808SOL    HW1 3865   1.634   4.570   4.653 -1.1083 -0.5564  0.2908
  808SOL    HW2 3866   1.619   4.701   4.580 -1.2409 -0.6566  0.1385
  809SOL     OW 3867   1.452   7.346  10.565  0.5554 -0.7152  0.0391
  809SOL    HW1 3868   1.457   7.350  10.660  0.7203 -0.4040  0.0185
  809SOL    HW2 3869   1.366   7.382  10.544  0.7457 -0.2690  0.0365
  810SOL     OW 3870   1.516   1.628   6.377  0.4938 -0.3594  0.5272
  810SOL    HW1 3871   1.604   1.644   6.343  1.4442 -2.1673  1.9742
  810SOL    HW2 3872   1.506   1.690   6.449 -0.2466  1.2134 -0.8653
  811SOL     OW 3873   0.854   5.775   2.095 -0.0111  0.7453  0.1770
  811SOL    HW1 3874   0.912   5.736   2.029  2.0399  1.5812  1.3869
  811SOL    HW2 3875   0.855   5.869   2.075  0.4954  0.9865  1.2649
  812SOL     OW 3876   2.585   4.773   6.861 -0.2818 -0.2247  0.1662
  812SOL    HW1 3877   2.571   4.788   6.768  1.2857  0.8992  0.0875
  812SOL    HW2 3878   2.576   4.859   6.902  0.3211 -0.4927  0.8865
  813SOL     OW 3879   1.560   0.851   0.533  0.3796 -0.3451 -0.5210
  813SOL    HW1 3880   1.555   0.918   0.465  1.3689 -1.0929 -1.3636
  813SOL    HW2 3881   1.634   0.878   0.587  1.8567 -1.5693 -1.8292
  814SOL     OW 3882   5.113   2.228  10.404  0.0047 -0.0273 -0.4582
  814SOL    HW1 3883   5.106   2.320  10.431 -2.7600  0.0079 -0.9324
  814SOL    HW2 3884   5.152   2.231  10.317 -0.3664  0.7405 -0.6103
  815SOL     OW 3885   5.273   6.394   6.284  0.2897 -0.0233  0.0810
  815SOL    HW1 3886   5.255   6.485   6.259 -2.1162 -0.3413  0.4180
  815SOL    HW2 3887   5.254   6.343   6.206 -0.2362 -0.3921  0.4408
  816SOL     OW 3888   5.243   1.246   5.489  0.1694  0.4492  0.1549
  816SOL    HW1 3889   5.269   1.338   5.484 -0.0594  0.6153  1.5625
  816SOL    HW2 3890   5.154   1.245   5.454  0.8587  0.4029 -1.7129
  817SOL     OW 3891   7.215   3.629   6.785  0.0789 -0.0906  0.2577
  817SOL    HW1 3892   7.186   3.707   6.833  0.1701  1.6371 -2.3237
  817SOL    HW2 3893   7.292   3.599   6.834 -0.4083  0.9508  1.7466
  818SOL     OW 3894   4.957   7.065   2.325 -0.6815 -0.1755 -0.4166
  818SOL    HW1 3895   4.963   6.970   2.316 -0.3190 -0.0915 -1.1158
  818SOL    HW2 3896   5.008   7.099   2.252  0.2789  0.5654  0.5623
  819SOL     OW 3897   3.819   0.848   5.695  0.5748  0.3820  0.6420
  819SOL    HW1 3898   3.773   0.765   5.706 -0.8150  1.0805  0.3257
  819SOL    HW2 3899   3.863   0.840   5.611  0.3199  0.0201  0.5398
  820SOL     OW 3900   0.204   4.537   2.804  0.0616 -0.3573 -0.6668
  820SOL    HW1 3901   0.124   4.485   2.793 -0.1298 -0.0141 -0.9014
  820SOL    HW2 3902   0.274   4.480   2.773  0.1237 -1.3046  1.0534
  821SOL     OW 3903   4.513   5.578   7.994  0.0206 -0.4484 -0.0603
  821SOL    HW1 3904   4.591   5.592   8.047 -0.1723  2.4726 -0.3970
  821SOL    HW2 3905   4.542   5.522   7.922  1.2804 -1.0308  0.8643
  822SOL     OW 3906   2.929   6.099  10.133  0.0255 -0.0431  0.2484
  822SOL    HW1 3907   2.943   6.073  10.042  0.4996  0.7869  0.0674
  822SOL    HW2 3908   2.835   6.096  10.145  0.0197 -1.1634  0.0465
  823SOL     OW 3909   7.753   1.374   8.910  0.7203 -0.4993  0.0044
  823SOL    HW1 3910   7.721   1.347   8.996  0.0091 -0.1446 -0.1433
  823SOL    HW2 3911   7.787   1.294   8.870  0.2240 -0.8386  0.2611
  824SOL     OW 3912   2.451   7.520  10.855  0.0973 -0.3638  0.0671
  824SOL    HW1 3913   2.386   7.563  10.911 -1.0017 -0.7196 -0.9003
  824SOL    HW2 3914   2.464   7.581  10.783  0.4360 -0.5460 -0.0286
  825SOL     OW 3915   1.543   4.895  11.162  0.1081 -0.4110 -0.1983
  825SOL    HW1 3916   1.476   4.903  11.230  0.9727 -0.1766  0.6513
  825SOL    HW2 3917   1.612   4.842  11.202  0.1212 -1.2722 -1.3186
  826SOL     OW 3918   0.470   1.750   1.757  0.1003  0.0818 -0.0107
  826SOL    HW1 3919   0.467   1.658   1.731  1.9783 -0.4577  1.4766
  826SOL    HW2 3920   0.489   1.748   1.851 -0.3201  2.0011  0.1635
  827SOL     OW 3921   3.377   4.563  10.548  0.5372 -0.5615 -0.4114
  827SOL    HW1 3922   3.347   4.631  10.609  0.8076 -0.8577  0.0575
  827SOL    HW2 3923   3.472   4.561  10.558  0.5057 -1.2347 -0.1750
  828SOL     OW 3924   1.759   3.789   8.640 -0.0627  0.7704 -0.0337
  828SOL    HW1 3925   1.812   3.805   8.562  1.4321 -1.6227  0.3885
  828SOL    HW2 3926   1.790   3.854   8.704  1.8545 -0.0573 -0.0686
  829SOL     OW 3927   4.270   4.358  11.294  0.0516  0.6847 -0.0929
  829SOL    HW1 3928   4.267   4.417  11.219 -0.9806  0.4548 -0.2471
  829SOL    HW2 3929   4.236   4.410  11.367  1.1644  0.9460  0.2593
  830SOL     OW 3930   0.958   3.643   2.614 -0.3053  0.8291  0.2915
  830SOL    HW1 3931   0.993   3.632   2.702 -1.0722 -1.4412  0.3981
  830SOL    HW2 3932   1.004   3.577   2.562 -2.0774 -0.0326 -0.2595
  831SOL     OW 3933   3.903   7.098   1.115  0.4566 -0.5301  0.2650
  831SOL    HW1 3934   3.874   7.146   1.192  3.1461 -0.0784  1.0951
  831SOL    HW2 3935   3.908   7.007   1.144  2.8091 -0.1763  1.1328
  832SOL     OW 3936   2.032   4.503   8.608 -0.3131  0.5944  0.6310
  832SOL    HW1 3937   2.051   4.533   8.519  0.3160  0.2281  0.6316
  832SOL    HW2 3938   2.094   4.431   8.622  0.4342  1.4392  1.7955
  833SOL     OW 3939   6.983   7.507   5.682  0.8042  0.0607  0.8849
  833SOL    HW1 3940   7.009   7.473   5.768  1.0819  0.0810  0.8107
  833SOL    HW2 3941   6.896   7.544   5.696  1.0470  0.4929  1.2669
  834SOL     OW 3942   0.797   2.927   9.081 -0.3449 -0.1880 -0.3116
  834SOL    HW1 3943   0.708   2.923   9.116 -0.3230 -0.7938 -0.3118
  834SOL    HW2 3944   0.794   2.871   9.003  0.0758 -0.3516 -0.2133
  835SOL     OW 3945   5.423   3.724   4.099  0.3621  0.3886  0.0173
  835SOL    HW1 3946   5.348   3.775   4.067  1.5650  1.8241 -0.6272
  835SOL    HW2 3947   5.416   3.729   4.194 -0.3728  0.4611 -0.0307
  836SOL     OW 3948   0.008   2.768   2.581  0.0249 -0.2029  0.9391
  836SOL    HW1 3949   0.103   2.781   2.588  0.4078 -1.8609 -0.5793
  836SOL    HW2 3950  -0.020   2.744   2.670  1.1213 -0.3034  1.2703
  837SOL     OW 3951   7.014   0.530   2.806  0.1090  0.2939 -0.1024
  837SOL    HW1 3952   6.936   0.550   2.858 -0.5166 -0.5187 -0.6935
  837SOL    HW2 3953   7.080   0.505   2.870  0.0446  1.4671  0.4401
  838SOL     OW 3954   3.287   7.276  11.385 -0.3267  0.3290 -0.1815
  838SOL    HW1 3955   3.316   7.188  11.361 -0.9562  0.4276 -1.4146
  838SOL    HW2 3956   3.280   7.274  11.480  0.1373 -0.8067 -0.1529
  839SOL     OW 3957   2.838   2.420   1.042 -0.6001 -0.3169  0.0624
  839SOL    HW1 3958   2.812   2.434   1.134  0.0503  1.6139  0.0034
  839SOL    HW2 3959   2.918   2.368   1.047  0.2538  0.9833  0.7202
  840SOL     OW 3960   3.803   5.173   3.487 -0.0484  0.2834 -0.1254
  840SOL    HW1 3961   3.840   5.129   3.564  1.6770  0.6881 -0.6858
  840SOL    HW2 3962   3.790   5.104   3.423  2.0984  0.4484 -0.7926
  841SOL     OW 3963   1.824   2.505   1.607 -0.1780 -0.4953  0.0695
  841SOL    HW1 3964   1.889   2.491   1.676 -0.1699  1.1089  0.4219
  841SOL    HW2 3965   1.862   2.463   1.530  0.1621 -1.6594  0.8473
  842SOL     OW 3966   5.580   7.120  10.463  0.1223  0.4906  0.0271
  842SOL    HW1 3967   5.580   7.025  10.452 -0.6933  0.4880 -0.0282
  842SOL    HW2 3968   5.513   7.137  10.529  0.3803  1.0179  0.1631
  843SOL     OW 3969   5.227   7.350   3.600  0.4441  0.3109 -0.8465
  843SOL    HW1 3970   5.286   7.274   3.604  1.2644  0.9370  2.1242
  843SOL    HW2 3971   5.154   7.326   3.657  0.6713  1.6729  0.0672
  844SOL     OW 3972   6.960   4.843  11.374 -0.3641  0.4298 -0.1647
  844SOL    HW1 3973   7.018   4.767  11.376 -0.4374  0.3997  1.4724
  844SOL    HW2 3974   6.874   4.808  11.354  0.0837  0.4505 -2.4165
  845SOL     OW 3975   2.214   1.318   2.350 -0.4843 -0.7729 -0.0578
  845SOL    HW1 3976   2.167   1.393   2.315  1.0750  0.9225  1.2712
  845SOL    HW2 3977   2.159   1.286   2.422 -0.3463  0.2042  0.4876
  846SOL     OW 3978   3.042   6.308   5.156  0.4488  0.2602  0.2963
  846SOL    HW1 3979   3.135   6.282   5.157  0.6937  0.7080  3.8719
  846SOL    HW2 3980   3.044   6.403   5.146  0.3925  0.2901  0.5672
  847SOL     OW 3981   4.988   1.487   0.015 -0.3007  0.4409 -0.6962
  847SOL    HW1 3982   4.951   1.494  -0.073  1.0846  0.9054 -1.2750
  847SOL    HW2 3983   5.069   1.436   0.003 -0.6628 -0.4454  0.4940
  848SOL     OW 3984   2.606   6.683   8.877 -0.7941 -0.1891  0.5787
  848SOL    HW1 3985   2.568   6.731   8.951 -1.8396  0.2676 -0.2288
  848SOL    HW2 3986   2.701   6.688   8.891 -0.8823  1.8354  0.7048
  849SOL     OW 3987   3.533   2.932   6.825 -0.0028  0.1552 -0.3399
  849SOL    HW1 3988   3.597   2.887   6.771  0.2943 -0.0225  0.1604
  849SOL    HW2 3989   3.581   2.960   6.903 -0.5309  0.0076  0.0482
  850SOL     OW 3990   2.655   5.044   8.802  0.1188 -0.3120 -0.1277
  850SOL    HW1 3991   2.643   4.981   8.873  1.2851 -0.6101 -0.1836
  850SOL    HW2 3992   2.733   5.015   8.756  0.6670  1.1426 -0.1817
  851SOL     OW 3993   1.603   6.435   4.542 -0.1238  0.0711 -0.2609
  851SOL    HW1 3994   1.688   6.459   4.504  0.1321 -0.7341 -0.2137
  851SOL    HW2 3995   1.625   6.375   4.613 -0.8154 -1.5002 -1.3227
  852SOL     OW 3996   7.813   3.643   2.505 -0.2929 -0.2633  0.2609
  852SOL    HW1 3997   7.903   3.636   2.474 -0.2160  2.2291 -0.2635
  852SOL    HW2 3998   7.818   3.700   2.583 -1.4692  0.6064 -0.2590
  853SOL     OW 3999   1.299   1.981   8.135  0.8200 -0.4712  0.4061
  853SOL    HW1 4000   1.362   2.051   8.152 -1.8723  2.0576  0.8243
  853SOL    HW2 4001   1.246   1.978   8.214  0.5627 -2.7731  0.2127
  854SOL     OW 4002   1.254   1.921   6.417 -0.7662 -0.0266  0.5688
  854SOL    HW1 4003   1.191   1.863   6.460 -0.6235 -0.9530 -0.4465
  854SOL    HW2 4004   1.235   1.914   6.324  0.9051 -0.4338  0.2134
  855SOL     OW 4005   0.014   2.606   0.042  0.1954 -0.1295  0.2430
  855SOL    HW1 4006   0.063   2.558   0.109  0.5164 -0.4457 -0.2087
  855SOL    HW2 4007  -0.059   2.645   0.089  0.7813  0.2043  0.9051
  856SOL     OW 4008   7.750   5.072   5.213  0.0015  0.4064  0.3490
  856SOL    HW1 4009   7.842   5.048   5.210 -0.2869 -0.7099 -0.7250
  856SOL    HW2 4010   7.742   5.132   5.287  1.3695 -0.4049  1.1859
  857SOL     OW 4011   4.214   5.242  11.056  0.4332  0.0984 -0.4863
  857SOL    HW1 4012   4.126   5.238  11.018  0.0475 -0.1791  0.4153
  857SOL    HW2 4013   4.230   5.153  11.089  1.7917 -0.3799 -2.2248
  858SOL     OW 4014   5.388   6.970  12.125 -0.1158  0.2859  1.1026
  858SOL    HW1 4015   5.434   6.892  12.094 -0.0586  0.3707  0.9733
  858SOL    HW2 4016   5.329   6.937  12.193  0.1891  0.1895  1.3197
  859SOL     OW 4017   1.818   7.508   6.907 -0.5723  0.0626  0.4341
  859SOL    HW1 4018   1.848   7.588   6.863  0.9526 -0.7772 -0.1331
  859SOL    HW2 4019   1.739   7.482   6.859  0.2659 -0.0538 -0.9288
  860SOL     OW 4020   4.669   6.688   6.241  0.0087  0.3247 -0.2614
  860SOL    HW1 4021   4.607   6.739   6.189 -0.9057 -2.1569 -1.8018
  860SOL    HW2 4022   4.626   6.603   6.252  1.8808 -0.4947  1.2472
  861SOL     OW 4023   2.342   2.048   8.259 -0.0814 -0.3377  0.1204
  861SOL    HW1 4024   2.425   2.065   8.213 -0.2736 -1.4631 -0.6880
  861SOL    HW2 4025   2.327   1.954   8.247 -0.6274 -0.4829  1.7076
  862SOL     OW 4026   4.513   2.431   2.332 -0.4227 -0.1437  0.8513
  862SOL    HW1 4027   4.478   2.416   2.420  2.0281 -2.5474  1.5521
  862SOL    HW2 4028   4.608   2.431   2.344 -0.0458  0.4723 -1.6668
  863SOL     OW 4029   6.175   1.979   0.170 -0.7018  0.1311 -0.2502
  863SOL    HW1 4030   6.156   1.943   0.083  0.2901  1.0621 -0.8844
  863SOL    HW2 4031   6.127   2.061   0.173  0.5303  0.9015 -0.5932
  864SOL     OW 4032   7.382   1.758   4.575 -0.3057  0.3761 -0.2796
  864SOL    HW1 4033   7.391   1.662   4.574  0.5671  0.4245  0.6525
  864SOL    HW2 4034   7.289   1.773   4.558 -0.4773 -0.6466 -0.3516
  865SOL     OW 4035   4.023   2.282   2.368 -0.3146  0.4801 -0.2995
  865SOL    HW1 4036   4.000   2.193   2.392 -2.3676  0.9809 -0.2045
  865SOL    HW2 4037   4.078   2.273   2.291 -0.7624 -0.8606 -0.4912
  866SOL     OW 4038   0.875   5.786   5.721  0.6079  0.6399 -0.7909
  866SOL    HW1 4039   0.915   5.779   5.634  0.7301  0.0771 -0.6925
  866SOL    HW2 4040   0.947   5.768   5.781  0.0944 -0.9656 -0.6191
  867SOL     OW 4041   1.914   2.873   8.931  0.3699 -0.1741  0.0038
  867SOL    HW1 4042   1.897   2.856   8.838 -1.7741 -0.4210  0.4079
  867SOL    HW2 4043   1.829   2.896   8.968  1.2470  0.2996  1.8511
  868SOL     OW 4044   6.371   2.483   4.546  0.1078 -0.1408  0.2960
  868SOL    HW1 4045   6.461   2.496   4.515  0.6235 -0.4955  1.5976
  868SOL    HW2 4046   6.318   2.533   4.484  1.0072 -1.4831 -1.6706
  869SOL     OW 4047   5.364   3.238   5.894  0.0837  0.1344  0.3331
  869SOL    HW1 4048   5.371   3.162   5.952 -2.1897  0.3206  0.9244
  869SOL    HW2 4049   5.358   3.313   5.953  1.4303  0.7343 -0.2404
  870SOL     OW 4050   3.807   0.861   1.929  0.2803  0.5081 -0.4754
  870SOL    HW1 4051   3.771   0.786   1.882  0.4732  1.0136 -1.4645
  870SOL    HW2 4052   3.797   0.839   2.022  0.0051 -0.5713 -0.7504
  871SOL     OW 4053   2.204   5.944   8.316  0.3730  0.1932 -0.2141
  871SOL    HW1 4054   2.121   5.959   8.362  0.8611  0.8303  0.4908
  871SOL    HW2 4055   2.212   5.849   8.310 -0.8598  0.1283 -1.1456
  872SOL     OW 4056   4.193   4.344   8.299 -0.1806  0.0715  0.1690
  872SOL    HW1 4057   4.272   4.385   8.264  0.3600 -1.3907 -0.4514
  872SOL    HW2 4058   4.135   4.336   8.223  0.9739 -3.0652 -0.5690
  873SOL     OW 4059   7.062   5.489   4.939 -0.0678 -0.3126 -0.2762
  873SOL    HW1 4060   7.050   5.414   4.997  0.0961 -1.5398 -1.7438
  873SOL    HW2 4061   7.154   5.514   4.950 -0.6735  1.2070  1.9137
  874SOL     OW 4062   4.256   6.734   9.823  0.2493 -0.4201 -0.4400
  874SOL    HW1 4063   4.235   6.823   9.851 -1.3695 -1.3374  1.6073
  874SOL    HW2 4064   4.313   6.744   9.748  0.7460  2.3301  0.2271
  875SOL     OW 4065   0.309   4.528   9.525  0.0455 -0.2313  0.4013
  875SOL    HW1 4066   0.295   4.433   9.524 -0.9374 -0.1158  1.3367
  875SOL    HW2 4067   0.405   4.538   9.524  0.2215 -1.2879  2.1527
  876SOL     OW 4068   7.771   2.399   7.622 -0.0569  0.4336 -0.2009
  876SOL    HW1 4069   7.815   2.371   7.702  1.4065  1.8933 -0.4323
  876SOL    HW2 4070   7.711   2.468   7.650  0.7541  1.2330 -0.3804
  877SOL     OW 4071   5.625   0.623   2.450 -0.1269  0.2539  0.2786
  877SOL    HW1 4072   5.689   0.570   2.403 -1.5052 -1.5450  0.3211
  877SOL    HW2 4073   5.545   0.616   2.398 -0.1940  3.0539 -0.1754
  878SOL     OW 4074   7.485   3.434  10.335 -0.1041  0.0407  0.2157
  878SOL    HW1 4075   7.524   3.499  10.276 -0.2840 -1.0054 -1.0977
  878SOL    HW2 4076   7.416   3.394  10.283  0.2792 -1.5007  0.8521
  879SOL     OW 4077   3.255   3.697   9.363  0.5823  0.6606  0.2497
  879SOL    HW1 4078   3.295   3.729   9.282 -0.8729  0.8214 -0.4244
  879SOL    HW2 4079   3.179   3.647   9.335 -0.0379  0.8397  1.5266
  880SOL     OW 4080   7.721   0.436   2.124  0.5956  0.8256  0.2860
  880SOL    HW1 4081   7.710   0.363   2.185  1.5601  0.7637  0.3907
  880SOL    HW2 4082   7.814   0.439   2.106  0.5539  1.9355  0.1626
  881SOL     OW 4083   6.340   2.273  10.735  0.1477 -0.0333 -0.4956
  881SOL    HW1 4084   6.312   2.348  10.682  0.0995 -0.4669 -1.0869
  881SOL    HW2 4085   6.387   2.217  10.674  1.4714  0.2147  0.2644
  882SOL     OW 4086   6.579   6.364  11.968 -0.5593 -0.7175 -0.4414
  882SOL    HW1 4087   6.652   6.308  11.994  0.7920  0.5848 -1.2722
  882SOL    HW2 4088   6.545   6.323  11.888 -0.1341 -0.8039 -0.5777
  883SOL     OW 4089   2.519   5.961   4.370 -0.2271 -0.5755 -0.8220
  883SOL    HW1 4090   2.565   6.017   4.433 -2.3545 -0.1809  0.4969
  883SOL    HW2 4091   2.501   5.880   4.418 -1.6025 -0.3961 -0.9888
  884SOL     OW 4092   0.068   2.658   0.477  0.4287 -0.3488 -0.3731
  884SOL    HW1 4093   0.060   2.736   0.421  0.8200  0.0132  0.0714
  884SOL    HW2 4094   0.002   2.672   0.546  0.4233 -0.4631 -0.3562
  885SOL     OW 4095   6.526   5.069   8.609  0.1640  0.8949 -0.1643
  885SOL    HW1 4096   6.462   5.065   8.680  0.0912  2.8191 -0.0565
  885SOL    HW2 4097   6.500   5.147   8.559  1.2702  0.5863 -1.2479
  886SOL     OW 4098   6.276   3.941   2.427  0.1818  0.7156 -0.1592
  886SOL    HW1 4099   6.344   3.896   2.377  0.1161 -0.5526  0.8309
  886SOL    HW2 4100   6.239   3.873   2.484 -1.0834  1.6558  0.1961
  887SOL     OW 4101   1.057   2.375   3.410  0.0060  0.4941 -0.0490
  887SOL    HW1 4102   1.081   2.282   3.409  0.1767  0.5385 -0.3829
  887SOL    HW2 4103   1.045   2.397   3.318 -4.8442 -0.3996  0.1228
  888SOL     OW 4104   0.478   6.144   5.906 -0.2858 -0.2577  0.2772
  888SOL    HW1 4105   0.388   6.175   5.894 -0.7294  0.0317  3.5493
  888SOL    HW2 4106   0.471   6.069   5.964  1.4024 -2.3831 -2.0472
  889SOL     OW 4107   4.599   6.620   3.922 -0.3865 -0.3139 -0.0206
  889SOL    HW1 4108   4.519   6.627   3.870 -0.6623 -1.7984  0.1659
  889SOL    HW2 4109   4.608   6.527   3.940  0.8654 -0.0601  0.7915
  890SOL     OW 4110   7.743   0.132  10.466  0.4959  0.1550 -0.0430
  890SOL    HW1 4111   7.829   0.161  10.438  2.8096 -1.2080  4.6579
  890SOL    HW2 4112   7.712   0.201  10.525 -0.7118 -0.3093 -0.0973
  891SOL     OW 4113   7.616   7.514  11.930  0.7335 -0.7408  0.2886
  891SOL    HW1 4114   7.635   7.555  11.845 -1.4892 -2.2271 -1.0056
  891SOL    HW2 4115   7.606   7.588  11.990 -0.2552  0.5156 -1.3294
  892SOL     OW 4116   7.322   1.086   4.003  0.3134 -0.0611  0.2316
  892SOL    HW1 4117   7.273   1.057   4.080 -0.8603  1.5716  0.1578
  892SOL    HW2 4118   7.322   1.010   3.944 -2.6760  0.0049  0.0023
  893SOL     OW 4119   6.345   3.291   5.164  0.1036 -0.2365 -0.0163
  893SOL    HW1 4120   6.312   3.280   5.253  2.1576  0.8352  0.9266
  893SOL    HW2 4121   6.285   3.354   5.124 -1.1321 -1.1108  0.3941
  894SOL     OW 4122   5.402   0.505   3.619 -0.5315  0.6764  0.1445
  894SOL    HW1 4123   5.388   0.414   3.646 -2.6043  1.1157  0.7011
  894SOL    HW2 4124   5.464   0.540   3.683  0.3895 -0.3537 -0.1498
  895SOL     OW 4125   6.660   5.021  10.694 -0.0051  0.1956 -0.5731
  895SOL    HW1 4126   6.733   5.048  10.749 -1.7878 -0.4796  2.3700
  895SOL    HW2 4127   6.685   4.934  10.661  0.3129 -0.3185  0.9360
  896SOL     OW 4128   0.047   2.639   6.924 -0.7293  0.0032 -0.3030
  896SOL    HW1 4129  -0.018   2.600   6.981 -0.7629 -0.1835 -0.4688
  896SOL    HW2 4130   0.098   2.697   6.981 -2.4433  1.8945 -0.6041
  897SOL     OW 4131   6.867   7.320   1.596 -0.7077  0.3296 -0.2819
  897SOL    HW1 4132   6.909   7.399   1.561 -0.8362  0.3811 -0.3190
  897SOL    HW2 4133   6.794   7.353   1.648  0.2555  0.3202  1.1201
  898SOL     OW 4134   0.134   5.975  11.451 -0.7099  0.5906  0.0835
  898SOL    HW1 4135   0.084   5.935  11.521 -3.0512  0.7256 -1.4146
  898SOL    HW2 4136   0.194   5.907  11.421 -0.6913  0.0872  1.2316
  899SOL     OW 4137   5.845   7.588   5.396 -0.2571 -0.0655  0.2921
  899SOL    HW1 4138   5.760   7.621   5.426  0.3209  1.9653 -0.1452
  899SOL    HW2 4139   5.865   7.641   5.319 -0.0248 -2.6773 -1.5533
  900SOL     OW 4140   2.729   3.140   3.112 -0.2513 -0.2905 -0.1651
  900SOL    HW1 4141   2.668   3.198   3.066  0.3622  0.6433  0.1708
  900SOL    HW2 4142   2.702   3.147   3.204 -1.5972 -2.2938 -0.3405
  901SOL     OW 4143   0.216   3.619   8.144  0.8364  0.1451  0.5887
  901SOL    HW1 4144   0.226   3.649   8.234  0.6701 -0.1906  0.7191
  901SOL    HW2 4145   0.163   3.687   8.102 -0.3055 -0.3815  1.1143
  902SOL     OW 4146   0.081   0.973   7.559 -0.7093 -0.2040  0.0403
  902SOL    HW1 4147   0.147   1.002   7.497 -1.2605  1.8081  0.3242
  902SOL    HW2 4148   0.092   1.031   7.635 -2.2947 -0.3084  0.3848
  903SOL     OW 4149   3.778   6.622   6.839  0.0776 -0.1990 -0.4110
  903SOL    HW1 4150   3.720   6.586   6.772  1.1804 -0.9118 -1.0141
  903SOL    HW2 4151   3.866   6.607   6.805  0.6668 -0.4248  1.1155
  904SOL     OW 4152   1.228   1.786   0.119  0.4135 -0.6186  0.5169
  904SOL    HW1 4153   1.168   1.849   0.159  0.5326 -0.4018  0.3570
  904SOL    HW2 4154   1.240   1.818   0.030 -0.0041 -1.2115  0.2455
  905SOL     OW 4155   1.781   7.837   2.751 -0.4290  0.2535  0.0107
  905SOL    HW1 4156   1.792   7.753   2.707  1.4734  0.8841 -0.8257
  905SOL    HW2 4157   1.852   7.892   2.717 -0.1064  1.4223  2.3374
  906SOL     OW 4158   3.307   2.533  11.260  0.3375  0.2437  0.1312
  906SOL    HW1 4159   3.332   2.623  11.238  0.4480  0.1536 -0.1062
  906SOL    HW2 4160   3.213   2.539  11.280 -0.2056  0.0059 -2.1644
  907SOL     OW 4161   0.716   3.717   3.457 -0.1812 -0.4813 -0.7359
  907SOL    HW1 4162   0.782   3.679   3.399  1.2672  2.4395 -1.2131
  907SOL    HW2 4163   0.673   3.784   3.403 -1.4075 -0.2310  0.4913
  908SOL     OW 4164   7.918   7.165   5.559  0.2961  0.5548  0.1696
  908SOL    HW1 4165   7.832   7.176   5.598 -0.1404  0.5353 -0.7652
  908SOL    HW2 4166   7.977   7.215   5.616 -0.4095  0.9780  0.5378
  909SOL     OW 4167   0.323   6.001  12.108 -0.9859  0.0082  0.1910
  909SOL    HW1 4168   0.343   5.992  12.015 -0.8282  2.4531 -0.0765
  909SOL    HW2 4169   0.229   6.013  12.112 -1.1016 -0.8996  0.4521
  910SOL     OW 4170   1.599   5.907  12.228  0.2371 -0.4005  0.5972
  910SOL    HW1 4171   1.628   5.955  12.305  1.6213  0.0024 -0.1363
  910SOL    HW2 4172   1.595   5.816  12.256  0.7842 -0.2654  1.1323
  911SOL     OW 4173   7.601   5.540  11.757  0.0076 -0.2432 -0.1489
  911SOL    HW1 4174   7.617   5.545  11.851 -2.0954  1.0532  0.2123
  911SOL    HW2 4175   7.645   5.617  11.721  2.6043 -1.8438 -0.5951
  912SOL     OW 4176   0.311   5.894   3.333  0.2274 -0.1959 -0.2295
  912SOL    HW1 4177   0.325   5.937   3.418 -0.4934 -1.3052  0.4810
  912SOL    HW2 4178   0.217   5.901   3.318  0.0588 -1.6677  0.0103
  913SOL     OW 4179   0.137   3.432   5.227  0.4364  0.4835 -0.6008
  913SOL    HW1 4180   0.186   3.350   5.228 -0.5632 -0.1276 -0.6443
  913SOL    HW2 4181   0.142   3.464   5.317 -1.8945 -1.3139  0.2608
  914SOL     OW 4182   4.749   7.466   5.660  0.2399 -0.0195 -0.7111
  914SOL    HW1 4183   4.671   7.416   5.683  0.5377  0.2499  1.0765
  914SOL    HW2 4184   4.821   7.415   5.697  0.5523  1.6385  1.1153
  915SOL     OW 4185   6.783   4.046   1.666 -0.2520  0.2742  0.0224
  915SOL    HW1 4186   6.755   3.955   1.673 -1.9844  0.8899  1.9302
  915SOL    HW2 4187   6.824   4.065   1.751 -1.4858  1.7430  0.3265
  916SOL     OW 4188   3.696   7.498  11.825  0.4557 -0.3244  0.1529
  916SOL    HW1 4189   3.779   7.483  11.869 -0.0768 -1.8116  0.7175
  916SOL    HW2 4190   3.677   7.591  11.840  3.2002  0.7397 -2.1674
  917SOL     OW 4191   2.672   6.401   0.956 -0.3668  0.2117  0.0603
  917SOL    HW1 4192   2.606   6.333   0.942 -0.5860 -0.2012  2.6104
  917SOL    HW2 4193   2.665   6.422   1.049  0.6973  2.7229 -0.3644
  918SOL     OW 4194   3.871   2.481   5.668 -1.2058 -0.7355 -0.2315
  918SOL    HW1 4195   3.874   2.554   5.730  2.5707 -1.6062  0.8612
  918SOL    HW2 4196   3.860   2.522   5.582 -2.2977  0.8281  0.6172
  919SOL     OW 4197   6.678   7.461  11.148  0.0859  0.8276  0.7458
  919SOL    HW1 4198   6.657   7.408  11.071 -0.7436  0.7510  1.0192
  919SOL    HW2 4199   6.701   7.547  11.113  0.1418  0.6672  0.3894
  920SOL     OW 4200   7.802   7.163   0.788  0.0609 -0.5247 -0.0400
  920SOL    HW1 4201   7.717   7.200   0.815 -0.4086 -0.4925 -1.4630
  920SOL    HW2 4202   7.803   7.175   0.693  1.1555 -1.6185 -0.1768
  921SOL     OW 4203   4.505   4.196   0.766 -0.3987 -0.3162  0.1200
  921SOL    HW1 4204   4.414   4.210   0.793  0.1389  1.4354  1.1903
  921SOL    HW2 4205   4.504   4.211   0.671 -1.5129 -2.1545 -0.2219
  922SOL     OW 4206   0.786   3.182  11.209  0.1842 -0.0873  0.6037
  922SOL    HW1 4207   0.783   3.161  11.116 -0.3405  0.3393  0.5226
  922SOL    HW2 4208   0.790   3.278  11.212  0.1090 -0.0942  1.0190
  923SOL     OW 4209   7.832   4.087   1.840 -0.0613  0.8428  0.6075
  923SOL    HW1 4210   7.770   4.019   1.867 -0.9014  1.5980  0.6350
  923SOL    HW2 4211   7.787   4.134   1.770  1.5754 -0.2624 -1.2801
  924SOL     OW 4212   5.090   1.249   6.146  0.0696 -0.2669  0.5962
  924SOL    HW1 4213   5.118   1.169   6.191  0.1690 -0.3102  0.4608
  924SOL    HW2 4214   5.002   1.266   6.178 -1.5034 -2.5077 -2.0956
  925SOL     OW 4215   5.288   7.839   0.658  0.6945  0.1077  0.0645
  925SOL    HW1 4216   5.380   7.818   0.638  0.6678 -1.2602  1.2278
  925SOL    HW2 4217   5.278   7.818   0.751 -0.4336  1.6532  0.3339
  926SOL     OW 4218   6.230   4.749   8.623  0.0875 -0.4353 -0.1991
  926SOL    HW1 4219   6.280   4.753   8.704  1.3240 -1.6480 -0.8532
  926SOL    HW2 4220   6.292   4.776   8.555 -0.3035 -1.3741 -0.9559
  927SOL     OW 4221   0.935   0.653   7.131 -0.1446 -0.6065  0.7536
  927SOL    HW1 4222   0.841   0.672   7.142  0.0431  0.4336  0.6574
  927SOL    HW2 4223   0.979   0.727   7.172  0.6327 -0.4204 -0.3994
  928SOL     OW 4224   2.088   7.151  10.870 -0.0801 -0.1823  0.4015
  928SOL    HW1 4225   2.135   7.114  10.945  1.0951  0.7749  0.1735
  928SOL    HW2 4226   2.020   7.206  10.909 -0.2168 -0.5907  0.7480
  929SOL     OW 4227   6.510   0.120   9.758 -0.0420 -0.5158  0.5201
  929SOL    HW1 4228   6.595   0.077   9.753  0.2651  0.2106 -1.3072
  929SOL    HW2 4229   6.528   0.206   9.796  0.3755  0.2902 -1.3731
  930SOL     OW 4230   6.653   6.274  10.120  0.2018  0.1377  0.5373
  930SOL    HW1 4231   6.562   6.263  10.151  0.6817 -0.2531  1.8808
  930SOL    HW2 4232   6.690   6.339  10.180  0.6493  0.7369 -0.3801
  931SOL     OW 4233   6.595   1.453   4.192  0.1197  0.1372  0.1417
  931SOL    HW1 4234   6.674   1.504   4.209  0.4742 -0.4655  0.3038
  931SOL    HW2 4235   6.537   1.474   4.265 -0.7055  2.1903 -1.0184
  932SOL     OW 4236   5.122   1.435   4.353  0.0095  0.0973  0.3233
  932SOL    HW1 4237   5.046   1.493   4.348 -0.1287 -0.0634  0.5371
  932SOL    HW2 4238   5.180   1.477   4.416  0.9201  1.1629 -1.1599
  933SOL     OW 4239   0.798   6.204   6.690  0.2585 -0.0762 -0.1690
  933SOL    HW1 4240   0.859   6.244   6.752  1.8822 -0.0160 -1.7116
  933SOL    HW2 4241   0.753   6.278   6.649 -0.0793 -0.0662  0.2182
  934SOL     OW 4242   6.856   2.655   0.261  0.4927 -0.0981 -0.2691
  934SOL    HW1 4243   6.940   2.610   0.249 -1.2859 -4.2387  0.9417
  934SOL    HW2 4244   6.810   2.642   0.178  0.8252  1.8276 -0.7945
  935SOL     OW 4245   0.048   5.987   9.563 -0.4979  0.4179  0.1065
  935SOL    HW1 4246   0.058   6.072   9.606  0.9722  0.1566  0.3097
  935SOL    HW2 4247  -0.039   5.957   9.590 -0.6144  1.3883  0.8630
  936SOL     OW 4248   3.172   2.307  11.544 -0.3439 -0.6497 -0.5692
  936SOL    HW1 4249   3.223   2.375  11.589 -0.5915 -1.0465  0.3417
  936SOL    HW2 4250   3.196   2.226  11.589 -2.0306 -0.8029  0.1248
  937SOL     OW 4251   5.127   0.635   1.560  0.1446  0.2995 -0.2283
  937SOL    HW1 4252   5.172   0.687   1.493 -1.9325  2.0967 -0.3593
  937SOL    HW2 4253   5.100   0.699   1.625 -0.3989 -1.0080  0.8698
  938SOL     OW 4254   4.718   3.209   9.840 -0.3805  0.2925 -0.3299
  938SOL    HW1 4255   4.674   3.132   9.877  1.5570 -1.4206 -1.3617
  938SOL    HW2 4256   4.648   3.272   9.824 -2.0223 -1.1765  0.7444
  939SOL     OW 4257   6.461   4.320   8.694 -0.4346 -0.3824  0.5902
  939SOL    HW1 4258   6.430   4.260   8.626  0.7992 -0.9258  0.4768
  939SOL    HW2 4259   6.535   4.366   8.654  0.3955 -0.7995  1.5829
  940SOL     OW 4260   0.001   2.382   4.456 -0.2624 -0.0534 -0.0069
  940SOL    HW1 4261   0.078   2.429   4.487  0.0797 -2.3861  3.1839
  940SOL    HW2 4262   0.036   2.302   4.417 -1.0093 -0.9088  1.0266
  941SOL     OW 4263   5.865   3.575   6.903  0.0571  0.5172 -0.4498
  941SOL    HW1 4264   5.863   3.548   6.811 -1.4507  4.0874 -1.6314
  941SOL    HW2 4265   5.944   3.628   6.911  0.4857 -0.2367  0.5034
  942SOL     OW 4266   3.554   6.562  11.866 -0.0549 -0.3294 -0.2710
  942SOL    HW1 4267   3.615   6.635  11.852  0.1421 -0.5420 -0.5534
  942SOL    HW2 4268   3.499   6.561  11.787 -1.5914  0.9415  0.7353
  943SOL     OW 4269   5.686   4.388   7.421 -0.1677  0.1836 -0.0761
  943SOL    HW1 4270   5.710   4.319   7.483  0.4649  0.6889  0.2568
  943SOL    HW2 4271   5.592   4.401   7.434 -0.2781 -0.5587 -0.0936
  944SOL     OW 4272   3.735   6.991   2.092 -0.2751 -0.2511  0.0915
  944SOL    HW1 4273   3.771   7.048   2.160  1.2467  0.0612 -0.9234
  944SOL    HW2 4274   3.661   7.040   2.056  1.7068  1.7069 -1.5764
  945SOL     OW 4275   2.727   7.528  10.144  0.1513  0.0611 -0.1504
  945SOL    HW1 4276   2.699   7.496  10.229  1.4758  0.1488  0.3475
  945SOL    HW2 4277   2.778   7.456  10.106  1.8804  0.9698  0.3381
  946SOL     OW 4278   1.689   2.224   4.159 -0.0767 -0.4624 -0.5726
  946SOL    HW1 4279   1.616   2.165   4.181 -0.1312 -0.9556 -1.9859
  946SOL    HW2 4280   1.766   2.168   4.161 -0.0106 -0.3867 -1.0910
  947SOL     OW 4281   1.200   6.892   3.485  0.4307 -0.0070  0.0069
  947SOL    HW1 4282   1.111   6.914   3.511  0.6200 -0.3102  0.9462
  947SOL    HW2 4283   1.198   6.797   3.471  0.7410 -0.1183  0.6509
  948SOL     OW 4284   1.160   1.470  11.665 -0.0663  0.0642 -0.2810
  948SOL    HW1 4285   1.101   1.394  11.667 -1.2373  0.8964 -1.3905
  948SOL    HW2 4286   1.234   1.442  11.612 -0.6700 -0.2180 -1.0059
  949SOL     OW 4287   1.935   5.800   5.737  0.5701 -0.3786 -0.2002
  949SOL    HW1 4288   1.857   5.745   5.742  0.5295 -0.2998  0.0035
  949SOL    HW2 4289   1.951   5.809   5.643  0.6792 -0.8880 -0.2320
  950SOL     OW 4290   5.124   6.537   8.230 -0.5018  0.1137 -0.0404
  950SOL    HW1 4291   5.074   6.616   8.212  0.4188  0.8539  0.4981
  950SOL    HW2 4292   5.127   6.490   8.147 -1.3244  0.4976 -0.2912
  951SOL     OW 4293   4.262   3.985   6.052 -0.0362 -0.5494  0.1527
  951SOL    HW1 4294   4.236   3.895   6.072 -1.8037 -0.5067 -1.6709
  951SOL    HW2 4295   4.315   3.978   5.973  0.2390 -0.0318  0.2860
  952SOL     OW 4296   7.049   1.035   1.455 -0.1861 -0.1832 -0.6778
  952SOL    HW1 4297   7.120   1.087   1.417 -0.6250 -0.2930 -1.6823
  952SOL    HW2 4298   7.060   0.948   1.417 -0.7244 -0.2624 -0.6588
  953SOL     OW 4299   0.375   2.268  11.149  0.4550 -0.3002 -0.0547
  953SOL    HW1 4300   0.463   2.233  11.165  1.8433  2.9057  0.2710
  953SOL    HW2 4301   0.387   2.331  11.078 -2.0092 -1.0745 -1.2459
  954SOL     OW 4302   0.127   4.956   8.293  0.2500  0.0601 -0.8628
  954SOL    HW1 4303   0.069   4.889   8.256  0.4249  0.2487 -1.4891
  954SOL    HW2 4304   0.086   5.039   8.269 -0.5417  0.1872  0.8336
  955SOL     OW 4305   4.679   5.039   5.829  0.0245  0.0651 -0.0078
  955SOL    HW1 4306   4.757   5.077   5.869 -0.4750  1.0691  0.0394
  955SOL    HW2 4307   4.667   5.088   5.748  0.1214 -0.8975 -0.6225
  956SOL     OW 4308   4.035   4.919   8.342 -0.2438  0.2747  0.1624
  956SOL    HW1 4309   4.038   4.826   8.322  0.7254  0.6347 -1.5531
  956SOL    HW2 4310   4.008   4.923   8.434 -1.6239 -1.6282 -0.1064
  957SOL     OW 4311   0.441   5.515   2.377  0.4391 -0.2591 -0.0972
  957SOL    HW1 4312   0.361   5.492   2.424  0.3126  0.5557  0.0994
  957SOL    HW2 4313   0.430   5.607   2.352  1.9043  0.3398  1.2440
  958SOL     OW 4314   2.286   5.646   3.097 -0.3568  0.2706 -0.3004
  958SOL    HW1 4315   2.308   5.665   3.188  0.7782  2.5991 -0.9929
  958SOL    HW2 4316   2.362   5.598   3.064 -0.6679 -0.3686 -0.1062
  959SOL     OW 4317   3.694   5.859   2.984 -0.2161  0.6309 -0.5566
  959SOL    HW1 4318   3.613   5.812   3.001  0.1655 -0.5345 -1.8201
  959SOL    HW2 4319   3.763   5.793   2.991  0.1780  0.4014 -4.2867
  960SOL     OW 4320   5.054   4.517   6.060 -0.3973 -0.5574  0.5915
  960SOL    HW1 4321   4.994   4.442   6.058 -1.3615  0.1898  0.3802
  960SOL    HW2 4322   5.118   4.498   5.992 -0.6313 -1.1917  0.5397
  961SOL     OW 4323   4.241   3.700   1.598  0.2961 -0.0498  0.0264
  961SOL    HW1 4324   4.219   3.720   1.689 -0.1131 -0.7391  0.0799
  961SOL    HW2 4325   4.161   3.718   1.549  0.3547 -0.2005 -0.1266
  962SOL     OW 4326   6.441   4.364  10.102  0.2759 -0.2844  0.8919
  962SOL    HW1 4327   6.378   4.413  10.049  1.5860  2.0330  1.3369
  962SOL    HW2 4328   6.511   4.342  10.042  0.2085 -0.6492  0.9442
  963SOL     OW 4329   3.962   3.085   6.920  0.3705 -0.5193  0.4036
  963SOL    HW1 4330   3.976   3.179   6.930 -1.2186 -0.0237 -1.5234
  963SOL    HW2 4331   3.962   3.070   6.826  2.5587 -2.8282  0.6643
  964SOL     OW 4332   6.574   5.047   6.230  0.4732 -0.3768  0.2239
  964SOL    HW1 4333   6.608   4.995   6.303 -0.7997 -1.9299 -0.2551
  964SOL    HW2 4334   6.648   5.102   6.204  1.5226 -1.1366  1.4728
  965SOL     OW 4335   7.860   3.763  11.667 -0.7544  0.2909  0.5301
  965SOL    HW1 4336   7.826   3.725  11.748  0.8264 -2.2100  0.1303
  965SOL    HW2 4337   7.845   3.695  11.601  2.0362  0.3745 -0.3033
  966SOL     OW 4338   5.562   6.416   1.819  0.3394  0.2579 -0.4116
  966SOL    HW1 4339   5.610   6.350   1.769 -0.9962  0.3861 -1.9409
  966SOL    HW2 4340   5.535   6.370   1.899  2.4233  0.0172  0.2169
  967SOL     OW 4341   0.692   3.947   4.327  0.1240  0.3324  0.0204
  967SOL    HW1 4342   0.743   3.866   4.328  0.8811  0.7636 -1.3101
  967SOL    HW2 4343   0.607   3.921   4.291  0.6867  0.2698 -1.3328
  968SOL     OW 4344   2.920   6.449   5.932  0.0324 -0.2238 -0.0043
  968SOL    HW1 4345   2.975   6.481   6.003  0.4444  0.3513 -0.5816
  968SOL    HW2 4346   2.952   6.493   5.854 -1.0860 -0.0645 -0.3938
  969SOL     OW 4347   2.888   4.487   0.961 -0.2806  0.7193 -0.2438
  969SOL    HW1 4348   2.925   4.553   0.902 -0.5748 -0.7207 -2.1310
  969SOL    HW2 4349   2.840   4.427   0.904  1.2132 -2.0292  1.1482
  970SOL     OW 4350   0.414   2.985   8.693  0.6323  0.1563 -0.0241
  970SOL    HW1 4351   0.343   2.945   8.643  0.7418 -2.0865  1.4666
  970SOL    HW2 4352   0.412   3.077   8.668 -3.2026  0.3496  0.3931
  971SOL     OW 4353   2.897   2.493   8.953 -0.3290 -0.4962 -0.2354
  971SOL    HW1 4354   2.917   2.579   8.914  0.4341  0.3223  1.8235
  971SOL    HW2 4355   2.982   2.461   8.984 -0.4217 -2.5501 -1.8973
  972SOL     OW 4356   0.086   7.094  10.715  0.0519  0.5998  0.6779
  972SOL    HW1 4357   0.118   7.184  10.709  0.2166  0.5729  1.1251
  972SOL    HW2 4358   0.151   7.042  10.668 -0.6629  0.8550 -0.6311
  973SOL     OW 4359   5.431   0.343  12.328  0.4289  0.1316 -0.1934
  973SOL    HW1 4360   5.363   0.346  12.395  1.2870  1.9105  0.6695
  973SOL    HW2 4361   5.503   0.396  12.364  0.6345  1.8324 -2.8020
  974SOL     OW 4362   1.475   3.370   0.392  0.2992  0.1212  0.0177
  974SOL    HW1 4363   1.391   3.383   0.437  0.7011 -1.0748  1.1568
  974SOL    HW2 4364   1.460   3.295   0.335  0.6521 -0.2346  0.3890
  975SOL     OW 4365   1.608   4.473   3.236 -0.0155 -0.5490  0.2159
  975SOL    HW1 4366   1.647   4.518   3.161  2.3797 -0.2575  1.5357
  975SOL    HW2 4367   1.582   4.543   3.295  1.0170 -0.8075  0.9987
  976SOL     OW 4368   6.929   5.893   4.298 -0.0013  0.1411 -0.7099
  976SOL    HW1 4369   6.975   5.939   4.228  2.4403 -0.9427  0.0963
  976SOL    HW2 4370   6.897   5.963   4.355  1.1471  0.9521 -1.0203
  977SOL     OW 4371   0.695   2.954   9.911  0.0545  0.0050  0.5028
  977SOL    HW1 4372   0.734   3.011   9.977  0.4822  1.4040 -0.8865
  977SOL    HW2 4373   0.741   2.871   9.920 -0.3387 -0.0405  2.3532
  978SOL     OW 4374   4.917   3.800   8.773  0.0406  0.3640 -0.0319
  978SOL    HW1 4375   4.881   3.721   8.733 -0.0673  0.5035 -0.2111
  978SOL    HW2 4376   4.841   3.854   8.794  0.0472  0.0258  0.9469
  979SOL     OW 4377   5.801   0.295   1.063  0.2603 -0.0647 -0.3746
  979SOL    HW1 4378   5.871   0.355   1.087 -1.3866  1.8345 -0.0424
  979SOL    HW2 4379   5.835   0.208   1.085  1.0248  1.0436  3.6594
  980SOL     OW 4380   5.395   1.424   8.413 -0.7910  0.1386 -0.5231
  980SOL    HW1 4381   5.363   1.349   8.464 -2.6695  1.3684  0.2193
  980SOL    HW2 4382   5.399   1.496   8.476  2.1390  0.4567 -0.9460
  981SOL     OW 4383   3.119   7.328   2.218  0.5734  0.3905  0.2926
  981SOL    HW1 4384   3.204   7.325   2.174  0.7756 -0.2748  0.7076
  981SOL    HW2 4385   3.121   7.409   2.269  0.7401  0.6531 -0.1284
  982SOL     OW 4386   7.758   0.626   2.604  0.0332  0.1893  0.2828
  982SOL    HW1 4387   7.780   0.671   2.685 -1.1339  1.6968 -0.1803
  982SOL    HW2 4388   7.680   0.575   2.625 -1.4233  2.0639 -0.2864
  983SOL     OW 4389   6.273   5.021   1.593 -0.1624  0.8108  0.0079
  983SOL    HW1 4390   6.260   5.001   1.686 -2.4819  1.2140 -0.1683
  983SOL    HW2 4391   6.238   5.110   1.583 -0.2382  0.6503 -1.2949
  984SOL     OW 4392   3.835   5.966  10.804 -0.0431 -0.0201 -0.4163
  984SOL    HW1 4393   3.909   5.916  10.769  0.5943  1.1637 -0.8013
  984SOL    HW2 4394   3.759   5.935  10.754  0.2718 -0.8389 -0.4070
  985SOL     OW 4395   7.854   7.035   5.148 -0.2520  0.0689 -0.1306
  985SOL    HW1 4396   7.894   7.113   5.187 -3.6656  1.4006  1.0274
  985SOL    HW2 4397   7.828   6.981   5.223 -2.1611  0.1272 -0.7080
  986SOL     OW 4398   1.255   1.262   4.043  0.9223 -0.3794 -0.0821
  986SOL    HW1 4399   1.350   1.266   4.031  0.8115  0.9620 -0.7065
  986SOL    HW2 4400   1.242   1.272   4.137  1.4736 -3.1450  0.3656
  987SOL     OW 4401   1.633   0.072   3.849 -0.0107  0.1771 -0.1171
  987SOL    HW1 4402   1.553   0.123   3.833 -0.3322 -0.6496 -1.2763
  987SOL    HW2 4403   1.703   0.126   3.812 -0.0459  0.7720  0.6446
  988SOL     OW 4404   3.911   0.790   4.523 -0.2986  0.0087 -0.3887
  988SOL    HW1 4405   3.932   0.704   4.560 -1.0262 -0.2319 -0.5170
  988SOL    HW2 4406   3.927   0.852   4.594  2.1185  0.0128 -0.8553
  989SOL     OW 4407   7.348   0.182   8.739  0.4783 -0.4048 -0.0181
  989SOL    HW1 4408   7.382   0.110   8.792 -0.9753 -2.1617 -1.3204
  989SOL    HW2 4409   7.274   0.216   8.789  1.0811  0.1127  0.5366
  990SOL     OW 4410   5.155   5.753   5.655  0.0788  0.0761  0.1652
  990SOL    HW1 4411   5.144   5.666   5.618 -2.2748  0.4707 -0.2416
  990SOL    HW2 4412   5.213   5.798   5.594 -2.0877  0.0698 -2.0428
  991SOL     OW 4413   0.774   6.628  12.316 -0.0529  0.5640  0.3607
  991SOL    HW1 4414   0.682   6.613  12.341 -0.5547  3.0242  0.2806
  991SOL    HW2 4415   0.823   6.616  12.397 -0.5552  0.0632  0.5958
  992SOL     OW 4416   0.598   0.072   1.084 -0.5622  0.0329 -0.6528
  992SOL    HW1 4417   0.600   0.116   1.169 -1.0834  0.5753 -0.9150
  992SOL    HW2 4418   0.578  -0.019   1.105 -1.3407  0.2858 -0.2354
  993SOL     OW 4419   4.613   5.539   7.262 -0.6069  0.0974  0.1919
  993SOL    HW1 4420   4.691   5.580   7.225 -0.7693 -1.4725 -2.1308
  993SOL    HW2 4421   4.646   5.460   7.305 -0.7245  0.5368  1.1226
  994SOL     OW 4422   2.593   7.492  11.537  0.2680 -0.3010  0.1949
  994SOL    HW1 4423   2.501   7.478  11.563  0.2633  0.2812  0.5034
  994SOL    HW2 4424   2.638   7.514  11.619  0.6709 -0.5154  0.0316
  995SOL     OW 4425   3.297   4.809  10.048  0.2469  0.0758 -0.3431
  995SOL    HW1 4426   3.386   4.823  10.080  0.3968 -0.0047 -0.7174
  995SOL    HW2 4427   3.306   4.740   9.982  0.1537  1.0905 -1.4760
  996SOL     OW 4428   5.866   5.539   0.446 -0.0044  0.7801  0.1208
  996SOL    HW1 4429   5.779   5.557   0.480 -0.0164  0.6157  0.1807
  996SOL    HW2 4430   5.877   5.598   0.372 -1.7942 -1.9582 -2.5694
  997SOL     OW 4431   0.582   5.265   9.363  0.4840  0.3269 -0.1379
  997SOL    HW1 4432   0.594   5.350   9.320 -0.4123  1.1284  1.1240
  997SOL    HW2 4433   0.527   5.284   9.439 -0.9199 -1.6070 -0.5857
  998SOL     OW 4434   0.943   2.514  12.031 -0.4566  0.3954  0.1506
  998SOL    HW1 4435   0.939   2.426  11.994 -2.3140  1.1275 -1.6230
  998SOL    HW2 4436   0.925   2.502  12.124 -0.3949 -1.1119 -0.0061
  999SOL     OW 4437   6.389   7.455   0.460  0.8838  0.0234 -0.1005
  999SOL    HW1 4438   6.428   7.390   0.519  0.2718  0.3083  0.6259
  999SOL    HW2 4439   6.357   7.403   0.386  0.9701 -0.4257  0.1705
 1000SOL     OW 4440   5.442   4.816   2.264 -0.5000 -0.1614  0.3001
 1000SOL    HW1 4441   5.423   4.846   2.175 -1.6825 -0.6667  0.3540
 1000SOL    HW2 4442   5.376   4.860   2.318 -0.1201 -0.2646  0.8553
 1001SOL     OW 4443   1.988   0.585   3.385 -0.7992  0.0123  0.2857
 1001SOL    HW1 4444   2.039   0.649   3.434  1.2338 -0.4603 -1.0890
 1001SOL    HW2 4445   1.924   0.637   3.336 -0.7405  0.7584  0.9925
 1002SOL     OW 4446   5.919   4.824   4.441  0.2380 -0.3581  0.2452
 1002SOL    HW1 4447   5.989   4.888   4.450  0.1448 -0.1312 -0.5780
 1002SOL    HW2 4448   5.939   4.778   4.359 -1.8050  1.2619 -1.2615
 1003SOL     OW 4449   6.902   2.143   8.888  0.8386  0.0660 -0.5904
 1003SOL    HW1 4450   6.870   2.061   8.925 -0.1276  0.7425  0.1214
 1003SOL    HW2 4451   6.859   2.212   8.939  0.9620  1.0281 -1.7170
 1004SOL     OW 4452   2.247   6.378   8.671  0.2074  0.3943  0.1612
 1004SOL    HW1 4453   2.173   6.417   8.717 -0.6470 -0.1753 -0.6935
 1004SOL    HW2 4454   2.277   6.447   8.611  0.1774  0.5152  0.2837
 1005SOL     OW 4455   0.341   4.984   8.130 -0.2850 -0.2764  0.0680
 1005SOL    HW1 4456   0.277   4.946   8.191  0.9670 -1.3646  0.7730
 1005SOL    HW2 4457   0.331   4.932   8.050 -0.6585 -0.0686 -0.0239
 1006SOL     OW 4458   0.360   1.230  11.952  0.0886 -0.1933 -0.3036
 1006SOL    HW1 4459   0.280   1.182  11.930 -0.6754 -0.4854  2.6827
 1006SOL    HW2 4460   0.393   1.187  12.031  1.5373  1.7818  0.2484
 1007SOL     OW 4461   7.329   1.371   6.418 -0.1920 -0.4565 -0.1663
 1007SOL    HW1 4462   7.251   1.335   6.376 -0.4739  1.4609 -1.4298
 1007SOL    HW2 4463   7.403   1.327   6.374 -0.5277  0.1462 -1.3875
 1008SOL     OW 4464   5.139   6.694   1.640  0.4276  0.1196 -1.1447
 1008SOL    HW1 4465   5.100   6.780   1.656 -0.8125 -0.8848  2.0234
 1008SOL    HW2 4466   5.229   6.703   1.671 -0.2006 -0.0895  0.9432
 1009SOL     OW 4467   5.917   4.246   0.246  0.2219 -0.0047 -0.0119
 1009SOL    HW1 4468   5.853   4.269   0.313  2.2147  0.2720  1.9159
 1009SOL    HW2 4469   5.905   4.152   0.231  1.1118 -0.5593  2.3673
 1010SOL     OW 4470   0.728   0.476   0.485  0.5220 -0.5980 -0.3762
 1010SOL    HW1 4471   0.718   0.483   0.580  1.0372  0.5395 -0.3927
 1010SOL    HW2 4472   0.792   0.406   0.473  0.7232 -0.5047  0.1268
 1011SOL     OW 4473   0.094   2.794   6.536  0.8204  0.3640 -0.0610
 1011SOL    HW1 4474   0.042   2.791   6.617  2.4714 -0.7568  0.9994
 1011SOL    HW2 4475   0.052   2.731   6.478  0.6894 -0.1607  0.5964
 1012SOL     OW 4476   7.014   0.044   9.156  0.0721 -0.2452 -0.0392
 1012SOL    HW1 4477   7.024   0.138   9.140  0.8238 -0.2140  0.5185
 1012SOL    HW2 4478   6.951   0.015   9.091 -1.4227  0.9503  0.8227
 1013SOL     OW 4479   0.048   1.115   8.270 -0.0363 -0.3319 -0.1797
 1013SOL    HW1 4480   0.021   1.121   8.178 -0.1445 -0.3058 -0.1455
 1013SOL    HW2 4481   0.003   1.187   8.313  0.7339  0.2238 -0.2824
 1014SOL     OW 4482   7.541   3.741  11.501  0.0547  0.0230  0.5519
 1014SOL    HW1 4483   7.535   3.836  11.513 -0.0581  0.1666 -0.5870
 1014SOL    HW2 4484   7.633   3.725  11.480  0.3751 -0.2977  2.0933
 1015SOL     OW 4485   7.897   1.774  11.676 -0.0582 -0.2432  0.0229
 1015SOL    HW1 4486   7.929   1.758  11.587 -1.2157  0.2659 -0.4965
 1015SOL    HW2 4487   7.958   1.839  11.712 -0.4965  0.7568 -0.9721
 1016SOL     OW 4488   1.957   2.138   3.606 -0.3658 -0.3855  0.7707
 1016SOL    HW1 4489   2.048   2.144   3.576 -0.0267  1.0525  2.0039
 1016SOL    HW2 4490   1.945   2.045   3.626 -0.0875 -1.1204 -2.0588
 1017SOL     OW 4491   4.667   0.957  11.393  0.0665  0.6594 -0.0981
 1017SOL    HW1 4492   4.602   1.012  11.436 -1.0538  0.2381 -1.1849
 1017SOL    HW2 4493   4.624   0.926  11.313  1.4782  0.0745 -0.6823
 1018SOL     OW 4494   7.869   6.050   6.191 -0.2546 -0.0003 -0.1381
 1018SOL    HW1 4495   7.776   6.069   6.185 -0.1839  1.5311  2.1472
 1018SOL    HW2 4496   7.876   5.987   6.263  0.5012  0.4479  0.1979
 1019SOL     OW 4497   2.663   0.767   9.916  0.4754 -0.3595 -0.0633
 1019SOL    HW1 4498   2.697   0.766   9.827 -0.0033 -1.1686 -0.2476
 1019SOL    HW2 4499   2.738   0.746   9.971  0.7346 -0.0321 -0.2890
 1020SOL     OW 4500   4.522   3.642   3.072 -0.2459 -0.5730 -0.1994
 1020SOL    HW1 4501   4.434   3.670   3.048  0.4960  0.4618 -1.9557
 1020SOL    HW2 4502   4.575   3.661   2.994  1.7861  0.0715  1.2374
 1021SOL     OW 4503   4.666   1.791   0.032 -0.6537 -0.4602  0.2195
 1021SOL    HW1 4504   4.617   1.755  -0.042  0.2326 -0.0348 -0.6018
 1021SOL    HW2 4505   4.752   1.811  -0.005  0.0144 -0.8283  1.5295
 1022SOL     OW 4506   5.584   3.470   2.914  0.1305 -0.0920  0.1523
 1022SOL    HW1 4507   5.541   3.535   2.968 -1.0873  0.9866 -1.9602
 1022SOL    HW2 4508   5.525   3.394   2.916 -1.0201  0.7032 -1.2256
 1023SOL     OW 4509   4.908   3.019   8.889 -0.7350  0.2053  0.1078
 1023SOL    HW1 4510   4.881   2.991   8.977  1.3284 -0.1152  0.7003
 1023SOL    HW2 4511   4.911   3.114   8.895 -0.7910  0.1942  0.3442
 1024SOL     OW 4512   0.945   3.891   3.650 -0.4585  0.1181 -0.2903
 1024SOL    HW1 4513   0.915   3.843   3.573  1.3907 -1.3748 -0.1540
 1024SOL    HW2 4514   1.040   3.880   3.650 -0.2477  1.4749  1.3136
 1025SOL     OW 4515   7.066   4.430   3.529 -0.2402 -0.1053  0.5644
 1025SOL    HW1 4516   7.067   4.521   3.558  1.1105 -0.0614  0.4270
 1025SOL    HW2 4517   6.987   4.424   3.474 -0.1790  1.0611  0.3116
 1026SOL     OW 4518   2.179   2.647   9.875 -0.2069 -0.1116  0.0176
 1026SOL    HW1 4519   2.216   2.569   9.915 -2.1825 -0.4348  1.3951
 1026SOL    HW2 4520   2.134   2.615   9.796 -0.5296 -0.2992  0.2736
 1027SOL     OW 4521   3.489   5.132   4.993  0.4495 -0.0479  0.6936
 1027SOL    HW1 4522   3.539   5.188   4.934  1.4177  0.0333  1.5695
 1027SOL    HW2 4523   3.405   5.177   5.002 -1.0508 -1.6465 -3.1147
 1028SOL     OW 4524   4.632   1.613   3.938 -0.5624  0.2476  0.3518
 1028SOL    HW1 4525   4.631   1.631   3.844  1.5898  0.5922  0.3383
 1028SOL    HW2 4526   4.564   1.547   3.950 -0.1232 -0.6479 -1.6290
 1029SOL     OW 4527   1.609   3.619  11.532 -0.3318 -0.1483 -0.2015
 1029SOL    HW1 4528   1.563   3.702  11.517 -0.0668  0.6831  2.8035
 1029SOL    HW2 4529   1.677   3.617  11.465 -0.0787  2.3283 -0.1440
 1030SOL     OW 4530   7.683   1.141   7.044 -0.0008 -0.4321  0.4669
 1030SOL    HW1 4531   7.668   1.058   6.999  0.1729 -0.7787  1.0429
 1030SOL    HW2 4532   7.687   1.206   6.974 -0.5182 -0.8552  0.0402
 1031SOL     OW 4533   1.521   3.834  11.395  0.0116 -0.4831 -0.2207
 1031SOL    HW1 4534   1.573   3.856  11.317  1.0366 -0.4827  0.4442
 1031SOL    HW2 4535   1.506   3.919  11.438  1.6428 -0.7227  0.9105
 1032SOL     OW 4536   2.845   7.845  10.357  0.1269  0.6843 -0.1013
 1032SOL    HW1 4537   2.776   7.794  10.401  0.6701 -1.4584 -1.5801
 1032SOL    HW2 4538   2.924   7.828  10.408  0.4021 -0.3658 -0.8610
 1033SOL     OW 4539   2.720   6.192   5.793  0.5759  0.1083 -0.1569
 1033SOL    HW1 4540   2.701   6.099   5.782  1.6381 -0.0721 -0.5690
 1033SOL    HW2 4541   2.792   6.194   5.856 -0.7850  0.7754  1.4333
 1034SOL     OW 4542   7.903   7.542   7.405  0.1531  0.3360  0.1792
 1034SOL    HW1 4543   7.830   7.583   7.450  0.3832 -1.0314  1.9212
 1034SOL    HW2 4544   7.978   7.599   7.424 -0.3259  1.5768 -1.3651
 1035SOL     OW 4545   2.274   7.759   4.983  0.2400 -0.3228 -0.2741
 1035SOL    HW1 4546   2.221   7.828   4.942  1.8726  1.3961  0.3385
 1035SOL    HW2 4547   2.244   7.756   5.074  1.5395  1.0857  0.2320
 1036SOL     OW 4548   7.292   5.792   0.185 -0.0274  0.0866  0.0763
 1036SOL    HW1 4549   7.218   5.815   0.242 -1.9354  2.1182 -2.9602
 1036SOL    HW2 4550   7.253   5.780   0.099  2.8172 -2.1562 -1.0519
 1037SOL     OW 4551   2.536   2.538   3.789 -0.1607 -0.0994 -0.6414
 1037SOL    HW1 4552   2.614   2.589   3.769 -0.8436  0.6454 -1.4923
 1037SOL    HW2 4553   2.474   2.602   3.825 -0.0800 -0.8425  0.9282
 1038SOL     OW 4554   1.173   1.825   4.665  0.2110 -0.0555  0.2167
 1038SOL    HW1 4555   1.163   1.730   4.657 -1.4251 -0.1069  2.0495
 1038SOL    HW2 4556   1.266   1.837   4.686  0.2314 -1.3857  1.0550
 1039SOL     OW 4557   2.706   3.121   0.401  0.3683 -0.5524 -0.3304
 1039SOL    HW1 4558   2.613   3.097   0.398 -0.2131  1.4818 -0.3898
 1039SOL    HW2 4559   2.750   3.044   0.437 -1.5705 -1.0141  1.2313
 1040SOL     OW 4560   2.904   4.301   3.748 -0.3930 -0.8340  0.1305
 1040SOL    HW1 4561   2.827   4.284   3.803 -0.6892  0.5919  0.2158
 1040SOL    HW2 4562   2.879   4.268   3.662 -1.9371  1.3368 -0.3425
 1041SOL     OW 4563   0.139   5.302   9.301  0.2858  0.4063  0.3277
 1041SOL    HW1 4564   0.057   5.256   9.316 -0.7135  1.5294 -1.4194
 1041SOL    HW2 4565   0.187   5.248   9.240 -0.3170  0.9897 -0.6908
 1042SOL     OW 4566   6.383   2.229   0.298 -0.0498  0.0453  0.2439
 1042SOL    HW1 4567   6.369   2.163   0.366 -0.8375 -0.2649 -0.2019
 1042SOL    HW2 4568   6.306   2.220   0.241  1.2114 -0.5786 -1.4165
 1043SOL     OW 4569   3.017   7.940  10.953  0.3302 -0.4970  0.4411
 1043SOL    HW1 4570   3.039   7.906  11.040  0.3743 -0.4865  0.4334
 1043SOL    HW2 4571   3.086   7.906  10.896  0.3231 -0.4715  0.4168
 1044SOL     OW 4572   7.392   2.735   2.837  0.0145 -0.1948 -0.2957
 1044SOL    HW1 4573   7.359   2.651   2.806 -1.9947  0.2927  0.3186
 1044SOL    HW2 4574   7.416   2.720   2.928  1.6676 -0.5757 -0.7749
 1045SOL     OW 4575   7.693   1.558  10.615  0.4397  0.6637 -0.0192
 1045SOL    HW1 4576   7.782   1.524  10.625 -0.1058 -0.9341 -0.1904
 1045SOL    HW2 4577   7.689   1.590  10.525  0.6379  0.0769 -0.2420
 1046SOL     OW 4578   6.306   5.002   5.236  0.4204  0.3341  0.3019
 1046SOL    HW1 4579   6.262   4.946   5.300  1.3866 -0.1084  0.5821
 1046SOL    HW2 4580   6.288   5.091   5.265 -0.3415  0.1634  0.3752
 1047SOL     OW 4581   4.958   5.934   8.278 -0.3948 -0.0638 -0.6900
 1047SOL    HW1 4582   4.935   5.923   8.185  0.9287 -1.8995 -0.8495
 1047SOL    HW2 4583   4.966   5.845   8.311  1.6529  0.5237  0.5369
 1048SOL     OW 4584   4.450   0.139   6.100 -0.4369  0.3644 -0.1372
 1048SOL    HW1 4585   4.443   0.171   6.010 -0.8803  0.5133 -0.0513
 1048SOL    HW2 4586   4.448   0.044   6.092 -2.2707  0.3666 -0.1659
 1049SOL     OW 4587   4.967   3.199   4.437 -0.0483 -0.0838  0.2702
 1049SOL    HW1 4588   5.019   3.178   4.360 -1.2571  0.2056 -0.6611
 1049SOL    HW2 4589   4.880   3.165   4.417 -0.7586  1.3092  0.8703
 1050SOL     OW 4590   3.155   3.490   7.639  0.1462 -0.1861  0.1224
 1050SOL    HW1 4591   3.196   3.574   7.620  1.1949 -0.5671  0.5962
 1050SOL    HW2 4592   3.189   3.466   7.726 -1.3700 -0.3609  0.6955
 1051SOL     OW 4593   4.169   1.204   3.709 -0.8409 -0.5414  0.1713
 1051SOL    HW1 4594   4.107   1.138   3.678  0.8595 -1.9869 -0.3129
 1051SOL    HW2 4595   4.183   1.183   3.801 -3.4200  1.7640  1.2074
 1052SOL     OW 4596   0.102   6.417   1.157 -0.3572 -0.0695  0.0922
 1052SOL    HW1 4597   0.032   6.424   1.092 -1.2604 -0.9468  0.9338
 1052SOL    HW2 4598   0.163   6.487   1.134 -1.0264  0.1052 -1.2416
 1053SOL     OW 4599   6.928   0.382   4.405 -0.5310 -0.0754  0.3133
 1053SOL    HW1 4600   6.951   0.431   4.484 -1.8921  1.0353  0.0512
 1053SOL    HW2 4601   7.002   0.322   4.392 -0.1368 -0.0766  2.2488
 1054SOL     OW 4602   4.737   3.995   4.986 -0.3386  0.1463  0.4927
 1054SOL    HW1 4603   4.746   3.957   5.074  2.6380  0.2011  0.3154
 1054SOL    HW2 4604   4.803   3.949   4.933 -1.5209  0.6730 -1.5430
 1055SOL     OW 4605   0.633   6.788   5.663  0.8247  0.5393 -0.7806
 1055SOL    HW1 4606   0.579   6.867   5.662  1.9795  1.3670 -2.3732
 1055SOL    HW2 4607   0.722   6.819   5.644  1.4892 -1.0217 -0.3732
 1056SOL     OW 4608   7.214   5.829   5.779  0.3371 -0.1014  0.4940
 1056SOL    HW1 4609   7.212   5.739   5.810  0.8946 -0.1497  0.4067
 1056SOL    HW2 4610   7.126   5.846   5.746 -0.1924 -0.1298  1.8567
 1057SOL     OW 4611   7.154   7.744   7.919 -0.4315 -0.4456  0.3832
 1057SOL    HW1 4612   7.242   7.736   7.955 -0.0781 -1.1623 -0.5797
 1057SOL    HW2 4613   7.127   7.834   7.939  1.7826  0.8875 -1.9537
 1058SOL     OW 4614   3.679   2.144   1.254  0.3212 -0.2829  0.1686
 1058SOL    HW1 4615   3.623   2.220   1.267  2.6762  1.4611  0.7347
 1058SOL    HW2 4616   3.720   2.159   1.168 -0.1385 -1.6161 -0.3219
 1059SOL     OW 4617   3.942   1.444   4.824  0.1523 -0.2162 -0.1722
 1059SOL    HW1 4618   3.940   1.521   4.768  0.5851 -0.4430 -0.5062
 1059SOL    HW2 4619   3.891   1.468   4.901  1.3105  0.8294  0.2885
 1060SOL     OW 4620   4.837   0.449  10.763 -0.1024  0.0949 -0.3938
 1060SOL    HW1 4621   4.922   0.440  10.806 -0.5347  0.6765  0.6212
 1060SOL    HW2 4622   4.817   0.542  10.769 -1.7086 -0.3007  1.1899
 1061SOL     OW 4623   4.839   5.029   0.952 -0.2387 -0.8160  0.9462
 1061SOL    HW1 4624   4.755   5.027   0.907  0.4350 -1.1620 -0.3485
 1061SOL    HW2 4625   4.829   4.970   1.027 -1.0792 -0.9871  0.7006
 1062SOL     OW 4626   6.872   5.197  10.268  0.4224 -0.2107 -0.3987
 1062SOL    HW1 4627   6.944   5.251  10.235  1.8715 -0.9436  1.3993
 1062SOL    HW2 4628   6.915   5.122  10.309 -1.4641 -3.4843 -3.7501
 1063SOL     OW 4629   6.010   1.761   1.968 -0.1214 -0.6333  0.2733
 1063SOL    HW1 4630   6.060   1.737   1.890 -0.7150 -1.7884  0.2332
 1063SOL    HW2 4631   5.919   1.745   1.945 -0.6380  1.9496  0.1712
 1064SOL     OW 4632   5.742   3.863   3.306 -0.2566 -0.3880 -0.3259
 1064SOL    HW1 4633   5.783   3.826   3.228  0.4676  1.1400 -0.7112
 1064SOL    HW2 4634   5.723   3.954   3.282  1.4082  0.6104  1.7356
 1065SOL     OW 4635   1.820   2.044   1.161 -0.2808 -0.3403 -0.4434
 1065SOL    HW1 4636   1.806   2.131   1.124 -0.2566 -0.3676 -0.5171
 1065SOL    HW2 4637   1.854   2.060   1.249 -0.9968 -0.2691 -0.1661
 1066SOL     OW 4638   2.527   3.462   5.777 -0.1244  0.1727 -0.5120
 1066SOL    HW1 4639   2.556   3.373   5.760 -0.2928  0.0962 -0.4008
 1066SOL    HW2 4640   2.600   3.503   5.823 -0.6769 -0.4112  0.9573
 1067SOL     OW 4641   6.068   1.128   9.048  0.4085  0.4748 -0.2025
 1067SOL    HW1 4642   6.020   1.211   9.044  1.5509  1.1765  0.1761
 1067SOL    HW2 4643   6.155   1.152   9.080  0.7474 -0.8827 -0.0417
 1068SOL     OW 4644   2.455   4.927  11.408 -0.5256 -0.2214  0.3089
 1068SOL    HW1 4645   2.518   4.857  11.425  0.7825  0.7978 -0.1305
 1068SOL    HW2 4646   2.407   4.936  11.490 -1.6965 -2.5236 -0.0404
 1069SOL     OW 4647   2.956   7.708  11.231 -0.0972  0.3973  0.0448
 1069SOL    HW1 4648   2.981   7.633  11.177  1.0597  0.0328  1.0224
 1069SOL    HW2 4649   2.861   7.703  11.236 -0.0861 -0.6561 -0.4003
 1070SOL     OW 4650   7.441   0.884   4.232 -0.5069  0.3621 -0.0444
 1070SOL    HW1 4651   7.534   0.870   4.254  0.1595  1.0947 -2.1386
 1070SOL    HW2 4652   7.414   0.801   4.191  0.3137  1.2572 -2.6163
 1071SOL     OW 4653   0.578   3.402   1.635 -0.0695 -0.1547 -0.0558
 1071SOL    HW1 4654   0.575   3.387   1.540  1.1017  1.5037 -0.4033
 1071SOL    HW2 4655   0.503   3.458   1.653 -1.7456 -2.4518  0.4635
 1072SOL     OW 4656   4.289   3.018   7.397 -0.2671  0.0709 -0.0267
 1072SOL    HW1 4657   4.384   3.030   7.403 -0.2977  1.3338 -1.3778
 1072SOL    HW2 4658   4.255   3.107   7.388 -1.7967 -0.1738  2.5511
 1073SOL     OW 4659   0.463   7.592   9.907 -0.3834 -0.2509  0.3631
 1073SOL    HW1 4660   0.392   7.654   9.890 -1.1944 -1.0094  0.8961
 1073SOL    HW2 4661   0.483   7.554   9.821 -0.9319 -0.3452  0.2743
 1074SOL     OW 4662   0.233   5.764   0.851  0.7851  0.3152  0.3998
 1074SOL    HW1 4663   0.147   5.798   0.875  0.2654 -0.5880 -0.1529
 1074SOL    HW2 4664   0.217   5.710   0.774  2.1971  2.0530 -1.2145
 1075SOL     OW 4665   4.785   7.928  10.908 -0.5185  0.0137 -0.1082
 1075SOL    HW1 4666   4.880   7.937  10.898 -0.0510 -2.5873  1.1730
 1075SOL    HW2 4667   4.754   8.017  10.920  1.8173  0.9127 -0.1173
 1076SOL     OW 4668   5.581   4.667   4.761  0.0820  0.5303  0.1718
 1076SOL    HW1 4669   5.579   4.707   4.674  0.8341 -0.2407 -0.2087
 1076SOL    HW2 4670   5.526   4.725   4.815 -0.4780  0.9539 -0.8284
 1077SOL     OW 4671   1.587   0.046   1.974  0.1358 -0.3613  0.3019
 1077SOL    HW1 4672   1.609   0.126   2.021 -0.0825 -0.4204  0.5082
 1077SOL    HW2 4673   1.671   0.006   1.952  0.2473 -1.1779  2.0936
 1078SOL     OW 4674   1.980   0.394   3.012  0.0139 -0.4532 -0.3048
 1078SOL    HW1 4675   1.929   0.466   3.049 -0.0689 -0.2579 -0.7932
 1078SOL    HW2 4676   2.036   0.436   2.946  1.3404 -0.5484  0.7190
 1079SOL     OW 4677   2.868   5.272   8.757 -0.0204  0.3865 -0.5835
 1079SOL    HW1 4678   2.777   5.251   8.780  0.5719  0.1358  1.7690
 1079SOL    HW2 4679   2.890   5.347   8.813  1.4753 -0.0733 -0.5159
 1080SOL     OW 4680   4.223   6.913   1.589  0.2462  0.6221 -0.8429
 1080SOL    HW1 4681   4.304   6.912   1.537 -0.3149  0.1535 -1.7460
 1080SOL    HW2 4682   4.213   6.823   1.620 -0.5091  0.3906 -1.7005
 1081SOL     OW 4683   5.388   0.827  12.102 -0.1415  0.4602 -0.7309
 1081SOL    HW1 4684   5.406   0.918  12.080  2.3178  0.1734 -0.2157
 1081SOL    HW2 4685   5.340   0.831  12.184 -4.0903  1.3353 -2.8482
 1082SOL     OW 4686   0.598   1.723   6.128 -0.0539 -0.3846  0.5031
 1082SOL    HW1 4687   0.684   1.717   6.087 -0.8404 -0.1344 -1.3026
 1082SOL    HW2 4688   0.601   1.661   6.201  0.9051 -2.1600 -0.9623
 1083SOL     OW 4689   7.516   1.213   8.457 -0.5108 -0.6407 -0.5259
 1083SOL    HW1 4690   7.537   1.198   8.549 -1.6855  1.5096  0.1684
 1083SOL    HW2 4691   7.481   1.302   8.455  0.1464 -0.3669 -3.1884
 1084SOL     OW 4692   3.700   7.164   4.521  0.6711 -0.7575  0.8242
 1084SOL    HW1 4693   3.708   7.073   4.492  0.0085 -0.3241 -0.8450
 1084SOL    HW2 4694   3.628   7.200   4.468 -0.0328  0.3578  2.4631
 1085SOL     OW 4695   0.942   6.682  11.430  0.1251  0.2775  0.2623
 1085SOL    HW1 4696   0.985   6.606  11.392  2.9025  1.0737  1.4942
 1085SOL    HW2 4697   0.933   6.661  11.523 -1.1421  0.6000  0.2263
 1086SOL     OW 4698   1.033   7.191   1.381  0.0035 -0.3934  0.0395
 1086SOL    HW1 4699   1.070   7.144   1.456  2.6230 -1.3576 -1.6964
 1086SOL    HW2 4700   1.025   7.281   1.411  2.1945 -0.4876  1.1456
 1087SOL     OW 4701   0.979   5.499   5.642  0.6885 -0.3109 -0.2833
 1087SOL    HW1 4702   1.043   5.446   5.690  1.7802 -0.5972 -1.9647
 1087SOL    HW2 4703   1.006   5.589   5.656  0.4238 -0.3340  0.4039
 1088SOL     OW 4704   1.080   2.273   0.498 -0.0619 -0.3013 -0.1485
 1088SOL    HW1 4705   1.092   2.180   0.515 -1.6504 -0.2784  1.3613
 1088SOL    HW2 4706   1.113   2.316   0.577 -0.6193  0.3326 -0.2558
 1089SOL     OW 4707   7.616   4.832   9.567  0.2116 -0.7165 -0.2617
 1089SOL    HW1 4708   7.652   4.743   9.559 -0.4322 -1.1342  1.1488
 1089SOL    HW2 4709   7.552   4.825   9.638 -0.8290  0.5782 -1.0355
 1090SOL     OW 4710   2.200   2.860   9.675 -0.5041  0.0574 -0.0218
 1090SOL    HW1 4711   2.189   2.793   9.743  0.1501 -0.2877 -0.2497
 1090SOL    HW2 4712   2.224   2.811   9.596 -1.2854  0.4524 -0.5210
 1091SOL     OW 4713   3.853   6.436   8.028  0.1184 -0.7213 -0.1935
 1091SOL    HW1 4714   3.833   6.442   7.934 -0.2081  0.1001 -0.0796
 1091SOL    HW2 4715   3.916   6.507   8.043  1.0928 -1.5925 -0.0121
 1092SOL     OW 4716   5.493   1.414   9.605  0.7013  0.1679 -0.2694
 1092SOL    HW1 4717   5.492   1.325   9.643 -0.3698 -0.1550 -1.0270
 1092SOL    HW2 4718   5.569   1.413   9.546  1.2052  0.0424  0.3615
 1093SOL     OW 4719   0.767   4.443   6.564 -0.1583 -0.1064 -0.4538
 1093SOL    HW1 4720   0.788   4.487   6.481  0.9173 -1.6022 -1.0107
 1093SOL    HW2 4721   0.851   4.426   6.604 -0.5160 -1.8920 -0.4001
 1094SOL     OW 4722   4.220   4.820   2.754  0.3235  0.6186  0.1101
 1094SOL    HW1 4723   4.194   4.747   2.699  0.8475  0.7553 -0.3359
 1094SOL    HW2 4724   4.311   4.837   2.729  0.6158  0.6014  1.1123
 1095SOL     OW 4725   6.676   7.866   7.633  0.6348 -0.5139 -0.2786
 1095SOL    HW1 4726   6.734   7.939   7.653  0.1922 -0.3676  0.5122
 1095SOL    HW2 4727   6.713   7.791   7.680  0.7356 -0.6553 -0.5791
 1096SOL     OW 4728   6.508   6.632  10.863  0.2872  0.3679  0.1108
 1096SOL    HW1 4729   6.589   6.615  10.911  1.2506  1.5215 -1.0262
 1096SOL    HW2 4730   6.536   6.676  10.783 -1.5499  1.9320  0.2390
 1097SOL     OW 4731   0.624   5.320  11.110 -0.2439 -0.3454  0.0536
 1097SOL    HW1 4732   0.591   5.237  11.076 -0.4051 -0.0762 -0.4639
 1097SOL    HW2 4733   0.647   5.302  11.201 -0.6138 -0.8672  0.0464
 1098SOL     OW 4734   7.300   3.782   4.900  0.2520 -0.1354  0.2989
 1098SOL    HW1 4735   7.312   3.792   4.806  1.2109  0.1834  0.4406
 1098SOL    HW2 4736   7.205   3.776   4.912  0.1032  0.1586 -0.6479
 1099SOL     OW 4737   7.396   5.803   9.819 -0.2134 -0.0522 -0.1076
 1099SOL    HW1 4738   7.468   5.794   9.882  0.7648  0.7714 -1.0584
 1099SOL    HW2 4739   7.409   5.890   9.781  0.2382 -1.1492 -2.6610
 1100SOL     OW 4740   2.744   5.185   4.904 -0.0301 -0.7011 -0.3130
 1100SOL    HW1 4741   2.658   5.204   4.866 -0.0120  0.7198  0.2808
 1100SOL    HW2 4742   2.806   5.225   4.842  0.0473  0.6782  0.5958
 1101SOL     OW 4743   2.484   4.069   0.741 -0.8987 -0.2959  0.1553
 1101SOL    HW1 4744   2.388   4.063   0.742 -0.9208 -0.1396 -0.6506
 1101SOL    HW2 4745   2.514   3.979   0.737 -1.0515 -0.3070 -1.2707
 1102SOL     OW 4746   0.023   5.456   1.277 -0.3982  0.0665  0.6104
 1102SOL    HW1 4747   0.096   5.402   1.246 -0.8967 -2.1018  2.8897
 1102SOL    HW2 4748  -0.053   5.421   1.231 -0.3019  1.0255 -0.3055
 1103SOL     OW 4749   3.616   0.788   0.538  0.0562  0.2059  0.1629
 1103SOL    HW1 4750   3.561   0.866   0.537 -0.2973 -0.0445 -0.9081
 1103SOL    HW2 4751   3.559   0.717   0.509 -0.1389 -0.8467  2.7776
 1104SOL     OW 4752   7.922   1.604   2.342  0.4861 -0.5453 -0.0941
 1104SOL    HW1 4753   7.856   1.653   2.390  0.0305 -1.3778  0.1277
 1104SOL    HW2 4754   7.885   1.517   2.330  1.5298 -1.0246  0.0218
 1105SOL     OW 4755   0.383   6.776   6.598  0.2601  0.2120 -0.0045
 1105SOL    HW1 4756   0.310   6.768   6.659 -0.6141  3.4100 -0.4184
 1105SOL    HW2 4757   0.349   6.745   6.515 -0.6455  1.5128 -0.1506
 1106SOL     OW 4758   5.795   6.959   5.584 -0.0008 -0.4830  0.3290
 1106SOL    HW1 4759   5.843   6.878   5.563  0.7136  0.3855 -1.6320
 1106SOL    HW2 4760   5.710   6.928   5.617 -0.1404 -2.0668 -1.3472
 1107SOL     OW 4761   0.994   0.975   3.754  0.5337 -0.1719  0.2005
 1107SOL    HW1 4762   1.033   1.023   3.681  0.2743  0.3809  0.4159
 1107SOL    HW2 4763   1.049   0.998   3.829 -1.0696  1.9102  0.8484
 1108SOL     OW 4764   3.946   6.648   5.979  0.0993  0.1754  0.6753
 1108SOL    HW1 4765   4.040   6.640   5.966  0.0746  0.0927  0.5442
 1108SOL    HW2 4766   3.936   6.665   6.073  0.2362  0.0388  0.7157
 1109SOL     OW 4767   2.212   6.570   0.728  0.1150  0.0858  0.1580
 1109SOL    HW1 4768   2.127   6.613   0.739 -0.2218 -0.2984 -0.8229
 1109SOL    HW2 4769   2.276   6.640   0.739 -0.3268  0.4195  0.7007
 1110SOL     OW 4770   2.772   5.585  10.314 -0.2341 -0.1994 -0.8452
 1110SOL    HW1 4771   2.782   5.680  10.319  0.9371 -0.3930  2.1318
 1110SOL    HW2 4772   2.841   5.558  10.253 -0.1514  0.7710 -1.2132
 1111SOL     OW 4773   0.445   2.200   0.417  0.0111  0.2801  0.1119
 1111SOL    HW1 4774   0.524   2.212   0.364 -0.6264  0.6222 -0.7886
 1111SOL    HW2 4775   0.461   2.120   0.467  1.3235  0.8647  0.6790
 1112SOL     OW 4776   1.857   5.586   9.561 -0.3815  0.2755 -0.1202
 1112SOL    HW1 4777   1.849   5.651   9.630  0.3037 -1.6288  1.8474
 1112SOL    HW2 4778   1.807   5.511   9.592  0.5342 -0.8996 -1.3462
 1113SOL     OW 4779   5.410   4.131   7.257  0.2781 -0.1833 -0.4514
 1113SOL    HW1 4780   5.458   4.098   7.333 -0.0495  1.2981  0.4269
 1113SOL    HW2 4781   5.470   4.119   7.183  2.3274  2.1919  0.6940
 1114SOL     OW 4782   5.726   5.466   3.685 -0.0234  0.5402  0.2671
 1114SOL    HW1 4783   5.749   5.466   3.778 -0.9763  0.4759  0.5087
 1114SOL    HW2 4784   5.677   5.385   3.673 -2.5379  1.9427  0.3867
 1115SOL     OW 4785   6.519   6.185   0.662 -0.4686 -0.4249  0.0679
 1115SOL    HW1 4786   6.430   6.151   0.647 -0.6243 -0.0108  0.0543
 1115SOL    HW2 4787   6.507   6.259   0.721  0.0906 -1.7796  1.9921
 1116SOL     OW 4788   2.884   4.964   9.423 -0.2603  0.0097 -0.2456
 1116SOL    HW1 4789   2.789   4.975   9.424 -0.2294  0.5378  1.6127
 1116SOL    HW2 4790   2.897   4.874   9.394 -1.2462  0.2969 -1.7018
 1117SOL     OW 4791   3.036   6.697   7.571 -0.0073 -0.2254 -0.2032
 1117SOL    HW1 4792   3.050   6.755   7.646  1.2192  0.6939 -1.1017
 1117SOL    HW2 4793   2.976   6.746   7.514 -0.4032 -0.6348 -0.1427
 1118SOL     OW 4794   0.292   3.433  12.407  0.3479  0.1547  1.1242
 1118SOL    HW1 4795   0.238   3.500  12.365 -0.4719 -0.3261  1.3890
 1118SOL    HW2 4796   0.290   3.456  12.500 -0.8971 -0.8783  1.3746
 1119SOL     OW 4797   5.740   3.622   0.029 -0.0299 -0.4313 -0.1886
 1119SOL    HW1 4798   5.644   3.628   0.026  0.0555  1.2300 -0.3805
 1119SOL    HW2 4799   5.762   3.564  -0.045 -0.8652 -0.6059 -0.3126
 1120SOL     OW 4800   6.751   6.871   2.527 -0.5179 -0.1861  0.2799
 1120SOL    HW1 4801   6.787   6.858   2.615 -0.1285 -2.4168 -0.1596
 1120SOL    HW2 4802   6.825   6.857   2.468 -1.2673 -1.0517 -0.4839
 1121SOL     OW 4803   5.210   1.494   2.717  0.5157  0.0765  0.2744
 1121SOL    HW1 4804   5.258   1.463   2.641 -0.1206 -3.3130  1.1126
 1121SOL    HW2 4805   5.134   1.539   2.679  0.6583 -0.7529 -1.0810
 1122SOL     OW 4806   7.431   1.444  11.211 -0.0860 -0.5339 -0.0654
 1122SOL    HW1 4807   7.524   1.421  11.212 -0.3805 -1.7812 -0.0723
 1122SOL    HW2 4808   7.420   1.498  11.289  0.4872 -1.0869  0.4211
 1123SOL     OW 4809   3.885   4.287  11.730  0.4697  0.6219  0.1467
 1123SOL    HW1 4810   3.970   4.243  11.724  0.7838  1.2773 -0.3825
 1123SOL    HW2 4811   3.887   4.332  11.814  0.3303  0.0028  0.4849
 1124SOL     OW 4812   2.687   1.072   0.735  0.0826 -0.3556  0.4135
 1124SOL    HW1 4813   2.765   1.123   0.754  0.3048 -0.8803  0.9204
 1124SOL    HW2 4814   2.626   1.135   0.695  1.1752 -0.1859 -1.0667
 1125SOL     OW 4815   3.972   5.165   6.641  0.0241 -0.0075  0.1557
 1125SOL    HW1 4816   3.909   5.150   6.711 -0.5364  0.2569 -0.2863
 1125SOL    HW2 4817   4.017   5.081   6.631 -1.7335 -0.8582 -0.9761
 1126SOL     OW 4818   7.773   5.830  11.254 -0.1559 -0.2464 -0.7388
 1126SOL    HW1 4819   7.866   5.852  11.261 -0.4323  0.7906 -0.1611
 1126SOL    HW2 4820   7.766   5.744  11.296  0.2492  0.5019  0.9670
 1127SOL     OW 4821   7.940   3.770   3.381 -0.0589 -0.3297  0.0179
 1127SOL    HW1 4822   7.883   3.704   3.342  0.8444  0.7729 -3.5157
 1127SOL    HW2 4823   7.882   3.824   3.434 -1.3128 -2.1314  0.5695
 1128SOL     OW 4824   1.982   5.240   1.533 -0.3080 -0.0134  0.0663
 1128SOL    HW1 4825   1.939   5.321   1.559 -0.4701  0.0959 -0.5385
 1128SOL    HW2 4826   1.925   5.170   1.566  0.4107  0.0797  1.6156
 1129SOL     OW 4827   1.822   1.529   9.730 -0.2555 -0.1368  0.5056
 1129SOL    HW1 4828   1.864   1.461   9.678  1.3710  1.0059  0.2122
 1129SOL    HW2 4829   1.893   1.591   9.750 -1.3895  0.8148  1.8399
 1130SOL     OW 4830   2.081   1.090   6.211  0.0692  0.2864 -0.1669
 1130SOL    HW1 4831   2.120   1.178   6.206  0.0463  0.2480 -1.0223
 1130SOL    HW2 4832   1.999   1.098   6.162 -0.2992 -0.0206  0.3929
 1131SOL     OW 4833   4.622   1.491   2.276  0.3002  0.1986  0.5343
 1131SOL    HW1 4834   4.712   1.457   2.269 -0.3807 -1.4001 -1.1771
 1131SOL    HW2 4835   4.627   1.580   2.241  1.2821  0.3116  0.9066
 1132SOL     OW 4836   0.158   1.659  10.537  0.0758 -0.1450  0.9775
 1132SOL    HW1 4837   0.080   1.650  10.483  0.5985 -2.7556  0.5152
 1132SOL    HW2 4838   0.178   1.753  10.535 -1.9148  0.3108 -0.4627
 1133SOL     OW 4839   3.876   7.333   3.063 -0.1602  0.3613 -0.5184
 1133SOL    HW1 4840   3.968   7.340   3.037 -0.3904 -0.5107 -1.6465
 1133SOL    HW2 4841   3.851   7.422   3.089  1.2135  0.4609  0.6139
 1134SOL     OW 4842   5.642   4.197   3.308  0.2537 -0.3246 -0.0929
 1134SOL    HW1 4843   5.571   4.206   3.371 -0.1450 -1.6999 -0.3195
 1134SOL    HW2 4844   5.598   4.180   3.225  0.7462  2.0038 -0.9071
 1135SOL     OW 4845   3.722   1.425   7.610  0.5483  0.2940  0.5492
 1135SOL    HW1 4846   3.751   1.363   7.677 -0.9079 -0.1464  0.8121
 1135SOL    HW2 4847   3.696   1.370   7.536 -1.4102  0.4887  1.0342
 1136SOL     OW 4848   0.786   2.193  10.711  0.1531  0.4582 -0.2342
 1136SOL    HW1 4849   0.818   2.104  10.699 -0.4391  0.1675  0.3176
 1136SOL    HW2 4850   0.794   2.209  10.805 -1.7857  0.1931  0.0067
 1137SOL     OW 4851   1.139   3.739   9.065  0.4116 -0.4319  0.1334
 1137SOL    HW1 4852   1.128   3.648   9.040 -0.2591 -0.1225 -0.7612
 1137SOL    HW2 4853   1.069   3.785   9.018 -0.1114  0.3538  1.6100
 1138SOL     OW 4854   4.026   0.595   9.920  0.5624 -0.2131 -0.2461
 1138SOL    HW1 4855   3.953   0.551   9.964  0.2163 -0.1819 -0.7925
 1138SOL    HW2 4856   3.995   0.612   9.832  0.8000  0.8861 -0.1306
 1139SOL     OW 4857   4.537   3.367   6.435  0.8672  0.1369  0.4498
 1139SOL    HW1 4858   4.619   3.395   6.395  1.6580 -1.3152  0.9715
 1139SOL    HW2 4859   4.516   3.285   6.390  0.3160 -0.0863  1.1095
 1140SOL     OW 4860   4.651   3.384   8.682 -0.4961  0.1368  0.4984
 1140SOL    HW1 4861   4.585   3.442   8.644 -0.1262  2.1448  2.6246
 1140SOL    HW2 4862   4.723   3.443   8.705  2.3147 -2.0206 -2.1002
 1141SOL     OW 4863   6.495   1.914   7.149 -0.0104  0.2572 -0.7153
 1141SOL    HW1 4864   6.520   1.949   7.063  0.5117 -0.5820 -0.9260
 1141SOL    HW2 4865   6.576   1.877   7.183 -0.3722 -0.0227 -0.1607
 1142SOL     OW 4866   3.434   7.046   3.353 -0.2789 -0.6231 -0.7331
 1142SOL    HW1 4867   3.384   6.977   3.398 -0.4438 -0.5224 -0.7591
 1142SOL    HW2 4868   3.381   7.065   3.275  0.6398 -1.7210 -1.6725
 1143SOL     OW 4869   5.292   4.635  10.467  0.4682  0.8907 -0.0711
 1143SOL    HW1 4870   5.294   4.545  10.500  0.9219  0.8144 -0.2980
 1143SOL    HW2 4871   5.340   4.631  10.384  0.7616  1.4000  0.0680
 1144SOL     OW 4872   2.408   4.679   7.189  0.2216  0.2330 -0.4389
 1144SOL    HW1 4873   2.480   4.641   7.237 -0.6988 -0.9511  0.0512
 1144SOL    HW2 4874   2.356   4.604   7.159 -2.4430  0.9709  1.7874
 1145SOL     OW 4875   6.189   2.412   8.760 -0.4991 -0.1769 -0.0419
 1145SOL    HW1 4876   6.234   2.438   8.840  0.7487  1.4189 -1.1937
 1145SOL    HW2 4877   6.230   2.330   8.734 -1.8881 -1.4788  1.6401
 1146SOL     OW 4878   5.057   3.122  10.755  0.1931 -0.1352 -0.1297
 1146SOL    HW1 4879   5.018   3.078  10.679  2.5672 -3.0698  0.1504
 1146SOL    HW2 4880   4.985   3.170  10.795 -2.1745 -2.1447 -1.7035
 1147SOL     OW 4881   5.806   0.773   1.537  0.1020  0.2940  0.0965
 1147SOL    HW1 4882   5.718   0.775   1.499  1.1008  0.6918 -2.3858
 1147SOL    HW2 4883   5.852   0.705   1.489  1.9624  1.9945 -0.6888
 1148SOL     OW 4884   2.104   7.408  11.663  0.4982  0.2056  0.4691
 1148SOL    HW1 4885   2.121   7.329  11.715  0.8099  0.9399  1.4929
 1148SOL    HW2 4886   2.043   7.378  11.595  1.5532 -1.1901  0.0871
 1149SOL     OW 4887   5.822   2.035   6.631 -0.2704 -0.1742  0.5631
 1149SOL    HW1 4888   5.885   1.992   6.573 -0.9926 -1.8574  0.9642
 1149SOL    HW2 4889   5.793   2.112   6.582  2.3202  0.8947  0.5181
 1150SOL     OW 4890   2.629   0.139   3.964 -0.2632 -0.5997 -0.7055
 1150SOL    HW1 4891   2.604   0.226   3.995  2.3884  0.0101 -0.0333
 1150SOL    HW2 4892   2.569   0.079   4.008  1.2755  0.4979  3.2452
 1151SOL     OW 4893   3.720   2.806   5.652  0.5365  0.1588 -0.0860
 1151SOL    HW1 4894   3.683   2.754   5.581  0.4857  2.2109 -1.6477
 1151SOL    HW2 4895   3.671   2.778   5.730 -1.7453  0.1476 -1.4454
 1152SOL     OW 4896   1.288   5.679  12.205 -0.2437  0.0532  0.4824
 1152SOL    HW1 4897   1.226   5.730  12.153 -0.9166 -1.7226 -0.5403
 1152SOL    HW2 4898   1.243   5.667  12.289  0.2309  1.6867  1.0176
 1153SOL     OW 4899   7.327   7.267   1.207  0.1894  0.1980 -0.0119
 1153SOL    HW1 4900   7.363   7.196   1.261 -0.0279 -0.5396 -0.8007
 1153SOL    HW2 4901   7.240   7.236   1.183  0.2459  0.5534 -0.6928
 1154SOL     OW 4902   1.076   2.042   7.908 -0.6042 -0.0770  0.1811
 1154SOL    HW1 4903   0.980   2.047   7.909 -0.6169 -0.3488  0.9644
 1154SOL    HW2 4904   1.103   2.121   7.861 -1.1451  1.8524  2.8245
 1155SOL     OW 4905   0.528   0.201   5.467  0.2119  0.6442  0.3983
 1155SOL    HW1 4906   0.620   0.189   5.491  0.6828  0.2653 -1.4305
 1155SOL    HW2 4907   0.479   0.161   5.539  1.5399 -1.1640  0.3674
 1156SOL     OW 4908   1.866   3.810   2.499 -0.0249 -0.3692  0.1420
 1156SOL    HW1 4909   1.922   3.860   2.439  0.8782  0.0288  1.2888
 1156SOL    HW2 4910   1.777   3.832   2.473  0.3091  2.7853  1.3425
 1157SOL     OW 4911   4.218   1.489   9.813  0.2542  0.7348  0.2754
 1157SOL    HW1 4912   4.221   1.558   9.880  2.2295  1.9137 -0.9084
 1157SOL    HW2 4913   4.229   1.536   9.731 -0.7034 -0.8160 -0.7780
 1158SOL     OW 4914   5.738   6.549   1.258 -0.4349 -0.5294  0.0096
 1158SOL    HW1 4915   5.779   6.464   1.245  0.1270 -0.6220  2.0570
 1158SOL    HW2 4916   5.679   6.536   1.333 -1.3647  0.5533 -0.5016
 1159SOL     OW 4917   7.565   5.178   9.165 -0.0992  0.0897  0.0670
 1159SOL    HW1 4918   7.541   5.128   9.243  2.1521 -1.6950 -0.2797
 1159SOL    HW2 4919   7.599   5.261   9.199  0.4443 -0.4833  0.9646
 1160SOL     OW 4920   1.617   6.912   5.401  0.4126 -0.4930  0.4080
 1160SOL    HW1 4921   1.702   6.881   5.431  0.6180 -0.0703  0.2589
 1160SOL    HW2 4922   1.631   6.939   5.311 -0.5622 -3.2888 -0.6958
 1161SOL     OW 4923   1.091   2.222   6.250 -0.5162 -0.5980  0.4532
 1161SOL    HW1 4924   1.183   2.229   6.223 -1.0763  1.5409 -1.0972
 1161SOL    HW2 4925   1.050   2.169   6.182 -1.0775  1.3285 -0.7818
 1162SOL     OW 4926   3.273   0.277   1.891  0.5651  0.1912  0.0882
 1162SOL    HW1 4927   3.203   0.339   1.909 -0.9179 -1.1050 -0.9255
 1162SOL    HW2 4928   3.320   0.268   1.974 -1.0862  0.3659  1.0903
 1163SOL     OW 4929   2.217   4.722  11.982  0.1416  0.4283  0.3257
 1163SOL    HW1 4930   2.264   4.661  11.924 -0.6467  0.5465 -0.4581
 1163SOL    HW2 4931   2.244   4.809  11.953 -0.6756  0.5068 -0.2785
 1164SOL     OW 4932   1.561   6.957   3.127 -0.4544  0.4341  0.1229
 1164SOL    HW1 4933   1.573   6.920   3.215 -1.5943  1.4326  0.7428
 1164SOL    HW2 4934   1.595   7.046   3.134 -1.3045  0.7960 -0.1928
 1165SOL     OW 4935   6.900   2.938  11.235 -0.0954 -0.5187 -0.6399
 1165SOL    HW1 4936   6.907   2.974  11.324  1.9212 -1.5997 -0.3063
 1165SOL    HW2 4937   6.942   3.003  11.179 -0.0226 -0.5274 -0.5953
 1166SOL     OW 4938   7.274   0.145  11.365  0.5897  0.3268  0.1205
 1166SOL    HW1 4939   7.305   0.059  11.335  0.9095 -0.4407  2.4602
 1166SOL    HW2 4940   7.296   0.148  11.458  0.9546  3.1428  0.0374
 1167SOL     OW 4941   7.273   5.355  12.282  0.4642 -0.2835  0.1709
 1167SOL    HW1 4942   7.229   5.362  12.198  0.0380  1.2272  0.4986
 1167SOL    HW2 4943   7.205   5.326  12.343  0.9836 -2.3424 -0.1301
 1168SOL     OW 4944   0.720   7.255   9.104  0.5386  0.3233  0.1669
 1168SOL    HW1 4945   0.773   7.330   9.077  2.2905 -0.6920  0.5956
 1168SOL    HW2 4946   0.676   7.227   9.025  2.2153  0.0129 -0.7000
 1169SOL     OW 4947   6.550   3.840   2.918  0.1908 -0.4034 -0.1221
 1169SOL    HW1 4948   6.505   3.925   2.919 -0.3622 -0.6972  0.3557
 1169SOL    HW2 4949   6.609   3.843   2.993 -0.2840 -0.6747  0.2703
 1170SOL     OW 4950   2.140   0.511  10.270 -0.3528 -0.0648  0.2296
 1170SOL    HW1 4951   2.206   0.570  10.306 -1.8165  2.9068 -1.5527
 1170SOL    HW2 4952   2.165   0.500  10.178 -0.4650 -1.7796  0.3782
 1171SOL     OW 4953   4.742   4.183   8.413  0.1902 -0.0138  0.0633
 1171SOL    HW1 4954   4.701   4.183   8.326 -0.7765  0.7535  0.4968
 1171SOL    HW2 4955   4.793   4.102   8.415 -3.3568 -2.4979  0.4068
 1172SOL     OW 4956   3.325   3.984  10.607 -0.7091  0.1244  0.1104
 1172SOL    HW1 4957   3.270   3.915  10.645  0.2577 -2.0489 -2.1463
 1172SOL    HW2 4958   3.277   4.014  10.530  1.4531 -2.5079 -2.4799
 1173SOL     OW 4959   7.953   7.379  11.656  0.1216 -0.5445 -0.4752
 1173SOL    HW1 4960   7.907   7.296  11.666  0.0984 -0.3939  0.7742
 1173SOL    HW2 4961   8.026   7.359  11.597 -0.5457 -1.1720 -1.1073
 1174SOL     OW 4962   6.019   3.990   1.825  0.1547 -0.2240 -0.9454
 1174SOL    HW1 4963   5.934   4.013   1.861 -0.3024  0.1945 -2.2505
 1174SOL    HW2 4964   6.052   4.071   1.787  2.6184  0.5076  2.2496
 1175SOL     OW 4965   2.385   0.310   8.093 -0.0544 -0.2851 -0.3112
 1175SOL    HW1 4966   2.318   0.310   8.161 -0.1661 -1.5869 -0.4022
 1175SOL    HW2 4967   2.336   0.328   8.012 -0.1059  0.0220 -0.2122
 1176SOL     OW 4968   0.799   6.338   8.506  0.2457  0.1010  0.6145
 1176SOL    HW1 4969   0.772   6.248   8.484  0.7318 -0.1965  1.2113
 1176SOL    HW2 4970   0.763   6.391   8.435 -1.1126 -0.4007  0.8925
 1177SOL     OW 4971   6.647   3.344  10.805  0.3898  0.1069  0.0790
 1177SOL    HW1 4972   6.622   3.314  10.893  2.5653  0.8520  1.0116
 1177SOL    HW2 4973   6.742   3.335  10.802  0.3234 -0.5790 -2.5106
 1178SOL     OW 4974   3.137   1.623   5.720  0.4282  0.7840 -0.3973
 1178SOL    HW1 4975   3.223   1.632   5.759  0.0887 -0.6482  0.7775
 1178SOL    HW2 4976   3.153   1.583   5.634  0.8571 -1.6605  0.7255
 1179SOL     OW 4977   5.687   4.497  11.637  0.1188  0.0827  0.1996
 1179SOL    HW1 4978   5.686   4.585  11.599 -0.8113  0.1538  0.3468
 1179SOL    HW2 4979   5.663   4.511  11.729 -1.2268 -0.4301 -0.0533
 1180SOL     OW 4980   5.267   0.113   6.052  0.3498 -0.0681  0.1676
 1180SOL    HW1 4981   5.207   0.150   6.118 -1.4147  1.2444 -2.0231
 1180SOL    HW2 4982   5.341   0.173   6.051 -0.8696  1.5143 -0.8536
 1181SOL     OW 4983   7.649   0.917   1.744  0.0451 -0.0919 -0.4623
 1181SOL    HW1 4984   7.639   0.843   1.804  2.2654  0.0479  0.1724
 1181SOL    HW2 4985   7.729   0.897   1.695  0.7371  1.8878 -0.2144
 1182SOL     OW 4986   6.759   6.269   6.201  0.2146  0.0071  0.2106
 1182SOL    HW1 4987   6.736   6.355   6.237 -0.2094 -1.1851  3.0546
 1182SOL    HW2 4988   6.680   6.241   6.155  0.4199  1.1672 -0.9150
 1183SOL     OW 4989   1.384   6.640  12.020 -0.1313 -0.5528 -0.3422
 1183SOL    HW1 4990   1.328   6.717  12.026 -0.4554 -0.8571  0.7561
 1183SOL    HW2 4991   1.457   6.668  11.965 -0.4977  0.3782 -0.3738
 1184SOL     OW 4992   0.499   4.276  10.878  0.5136 -0.3105  0.1616
 1184SOL    HW1 4993   0.582   4.316  10.906 -0.1817  1.3063  0.0342
 1184SOL    HW2 4994   0.497   4.290  10.783  0.9720 -2.1057 -0.1478
 1185SOL     OW 4995   5.386   4.891   6.311 -0.3957  0.1745 -0.5863
 1185SOL    HW1 4996   5.333   4.811   6.305 -0.3289  0.0566  0.2632
 1185SOL    HW2 4997   5.332   4.959   6.271 -2.0352  0.4542  1.8915
 1186SOL     OW 4998   7.954   2.756   1.890 -0.2388 -0.0807 -0.2601
 1186SOL    HW1 4999   7.913   2.706   1.961 -0.9356 -1.3307 -1.5066
 1186SOL    HW2 5000   8.047   2.736   1.896 -0.2146  0.2196  0.5830
 1187SOL     OW 5001   4.205   7.252   4.731 -0.3893  0.3845  0.5866
 1187SOL    HW1 5002   4.117   7.279   4.755  0.5277  2.3312  2.0114
 1187SOL    HW2 5003   4.192   7.188   4.661 -2.9489 -0.4071  1.6675
 1188SOL     OW 5004   6.376   0.816   4.269  0.0045 -0.2440  0.0266
 1188SOL    HW1 5005   6.300   0.760   4.255  0.1921 -0.5795  0.3327
 1188SOL    HW2 5006   6.397   0.851   4.182  0.0477 -0.8541 -0.2093
 1189SOL     OW 5007   3.042   6.749   3.560  0.8853 -0.2683  0.0782
 1189SOL    HW1 5008   2.968   6.758   3.620  0.5572 -0.0535 -0.3539
 1189SOL    HW2 5009   3.108   6.809   3.594  0.6363 -0.0231  0.1284
 1190SOL     OW 5010   3.850   5.123   2.893  0.2513  0.1667  0.3869
 1190SOL    HW1 5011   3.912   5.068   2.940 -0.2505  0.2436  1.1505
 1190SOL    HW2 5012   3.764   5.086   2.915 -0.0706  1.0457  0.6370
 1191SOL     OW 5013   4.613   2.903   3.393 -0.3329  0.1507  0.0297
 1191SOL    HW1 5014   4.619   2.980   3.450 -0.6233  1.9222 -2.2078
 1191SOL    HW2 5015   4.520   2.893   3.376 -0.2842 -0.6389  0.1825
 1192SOL     OW 5016   5.136   4.107   7.361  0.6127 -0.2995 -0.3083
 1192SOL    HW1 5017   5.051   4.096   7.318  0.9811 -1.2297 -0.8253
 1192SOL    HW2 5018   5.194   4.138   7.293  0.9500 -0.7523 -0.2293
 1193SOL     OW 5019   5.146   2.638   8.724 -0.2450 -0.7278  0.2607
 1193SOL    HW1 5020   5.153   2.647   8.628  1.4133 -0.0089  0.4035
 1193SOL    HW2 5021   5.207   2.567   8.746  1.4542  0.8533  0.9794
 1194SOL     OW 5022   2.922   7.555   8.852  0.1392 -0.1342  0.1361
 1194SOL    HW1 5023   2.965   7.469   8.859 -0.9010 -0.6690  0.1982
 1194SOL    HW2 5024   2.831   7.534   8.831  0.4334  1.0208 -2.8347
 1195SOL     OW 5025   5.844   0.054   7.870  0.2688  0.3823 -0.6518
 1195SOL    HW1 5026   5.893   0.007   7.938 -0.2865 -1.7545 -1.6793
 1195SOL    HW2 5027   5.897   0.045   7.791 -0.8793 -0.4085 -1.3601
 1196SOL     OW 5028   3.318   3.250  10.355  0.1018  0.0003  0.1694
 1196SOL    HW1 5029   3.298   3.339  10.384 -0.9676  0.0130 -0.5549
 1196SOL    HW2 5030   3.387   3.261  10.289 -2.0064  0.6404 -2.0948
 1197SOL     OW 5031   4.742   3.156   7.812  0.1022 -0.3416 -0.2412
 1197SOL    HW1 5032   4.663   3.201   7.782  0.2370 -0.6809 -1.1470
 1197SOL    HW2 5033   4.741   3.072   7.764  1.8131  0.2911 -1.4939
 1198SOL     OW 5034   6.584   1.176   1.955 -0.3654  0.0397 -0.1884
 1198SOL    HW1 5035   6.492   1.198   1.942 -0.3854 -0.6484 -1.3980
 1198SOL    HW2 5036   6.631   1.252   1.920 -0.4385  1.0621  1.7834
 1199SOL     OW 5037   2.681   7.095   9.299  0.1846 -0.1023  0.1672
 1199SOL    HW1 5038   2.716   7.184   9.306 -0.8562  0.2054  2.3682
 1199SOL    HW2 5039   2.608   7.102   9.238  1.4023  0.0851 -1.3084
 1200SOL     OW 5040   0.225   2.684  12.169 -0.2600  0.1665 -0.7256
 1200SOL    HW1 5041   0.312   2.668  12.207 -0.5566  0.5046  0.1271
 1200SOL    HW2 5042   0.223   2.779  12.154 -0.3469  0.1073 -1.1040
 1201SOL     OW 5043   6.895   0.751  10.386 -0.4589 -0.6098  0.4573
 1201SOL    HW1 5044   6.842   0.695  10.441  0.2769 -1.2955  0.4872
 1201SOL    HW2 5045   6.962   0.787  10.445  0.2803 -1.2815  0.0498
 1202SOL     OW 5046   6.926   5.183   5.462 -0.1779  0.0188  0.3583
 1202SOL    HW1 5047   6.855   5.205   5.401  0.0739  0.7071  0.3189
 1202SOL    HW2 5048   7.003   5.226   5.427  0.2959 -0.8265  0.3412
 1203SOL     OW 5049   0.157   1.821   6.268 -0.2154 -0.3876  0.9704
 1203SOL    HW1 5050   0.114   1.769   6.200 -0.3209  0.4592  0.3648
 1203SOL    HW2 5051   0.203   1.757   6.322  1.2724 -0.9882 -0.8932
 1204SOL     OW 5052   4.971   0.321   8.108 -0.1527  0.1903  0.0213
 1204SOL    HW1 5053   5.056   0.363   8.099 -0.0793  0.4975  1.7527
 1204SOL    HW2 5054   4.910   0.379   8.063  0.4415  0.3601 -0.5768
 1205SOL     OW 5055   1.551   4.925   3.218  0.3518 -0.1277 -0.0622
 1205SOL    HW1 5056   1.627   4.875   3.246  1.0056  0.5179 -0.6491
 1205SOL    HW2 5057   1.520   4.968   3.298  1.4202  0.6716 -0.0597
 1206SOL     OW 5058   4.325   1.191   0.005  0.3120 -0.2774 -0.0380
 1206SOL    HW1 5059   4.386   1.252  -0.035  0.7833 -0.9537 -0.3761
 1206SOL    HW2 5060   4.362   1.173   0.092  1.6439 -2.0940 -0.9019
 1207SOL     OW 5061   6.083   0.383  11.483 -0.0004 -0.2758  0.1317
 1207SOL    HW1 5062   6.050   0.303  11.442 -2.3064  1.6451 -2.0747
 1207SOL    HW2 5063   6.035   0.388  11.566 -1.7411  0.0139 -0.8494
 1208SOL     OW 5064   0.414   6.008   4.828 -0.5284 -0.3573 -0.0190
 1208SOL    HW1 5065   0.403   5.994   4.921 -1.1061  0.8265  0.1144
 1208SOL    HW2 5066   0.401   6.103   4.816 -0.1779 -0.4400 -1.2496
 1209SOL     OW 5067   4.371   3.423   2.808  0.1474  0.1627  0.5358
 1209SOL    HW1 5068   4.363   3.328   2.807  0.5224  0.1329 -0.1128
 1209SOL    HW2 5069   4.285   3.455   2.834  0.1673 -0.3695  1.2769
 1210SOL     OW 5070   4.703   2.204   7.556  0.7967 -0.4989  0.4734
 1210SOL    HW1 5071   4.613   2.189   7.587  0.6692 -1.3457 -0.2948
 1210SOL    HW2 5072   4.713   2.147   7.480  1.5192  0.6330 -0.3175
 1211SOL     OW 5073   2.978   4.762  10.932 -0.4073 -0.1438  0.0734
 1211SOL    HW1 5074   2.987   4.667  10.943  0.5632 -0.1448 -0.6419
 1211SOL    HW2 5075   2.976   4.797  11.021  1.5727 -0.6331  0.3452
 1212SOL     OW 5076   5.465   0.480  12.040 -0.6524  0.0273 -0.6344
 1212SOL    HW1 5077   5.440   0.453  12.129  2.4544  2.7232  1.2749
 1212SOL    HW2 5078   5.535   0.420  12.015 -0.3892  0.3088 -0.5685
 1213SOL     OW 5079   1.527   3.136   6.897 -0.1170  0.6911  0.2904
 1213SOL    HW1 5080   1.570   3.219   6.874 -1.2532  1.0344 -0.7463
 1213SOL    HW2 5081   1.500   3.100   6.812  0.8774 -1.0655  0.6672
 1214SOL     OW 5082   3.028   2.650  11.557 -0.0516  0.1520 -0.1227
 1214SOL    HW1 5083   2.936   2.677  11.561  0.5683  2.4398  0.1358
 1214SOL    HW2 5084   3.037   2.586  11.628 -1.4694 -0.2697 -0.2809
 1215SOL     OW 5085   6.893   6.048   1.307  0.2189  0.3459 -0.1385
 1215SOL    HW1 5086   6.905   6.110   1.379  0.6163  0.7530 -0.5478
 1215SOL    HW2 5087   6.799   6.028   1.309  0.2939  0.0315  0.7436
 1216SOL     OW 5088   0.100   6.530   5.935 -0.1588 -0.5765 -0.2246
 1216SOL    HW1 5089   0.033   6.463   5.950  0.3563 -0.9684  0.3860
 1216SOL    HW2 5090   0.180   6.493   5.972  0.0266  0.5983  0.5986
 1217SOL     OW 5091   4.474   3.937  11.834  0.4442  0.1454 -0.0114
 1217SOL    HW1 5092   4.493   4.018  11.786 -0.3776  0.5967  0.4099
 1217SOL    HW2 5093   4.442   3.876  11.768  0.6604  0.2974 -0.2583
 1218SOL     OW 5094   6.844   0.821  10.915 -0.2313  0.1937 -0.0420
 1218SOL    HW1 5095   6.938   0.836  10.913 -0.2341  0.3653  0.7352
 1218SOL    HW2 5096   6.806   0.907  10.933 -0.4151 -0.1686  1.4659
 1219SOL     OW 5097   4.892   3.553   2.290  0.2896  0.0784 -0.0677
 1219SOL    HW1 5098   4.957   3.547   2.220 -0.1921 -1.6184 -0.4281
 1219SOL    HW2 5099   4.940   3.588   2.365  1.2953  0.0503 -0.6890
 1220SOL     OW 5100   5.023   3.560  12.295  0.2334 -0.0886  0.0398
 1220SOL    HW1 5101   4.960   3.495  12.327 -0.0433  0.4016  0.5202
 1220SOL    HW2 5102   4.992   3.583  12.208  0.3781 -0.6546 -0.1647
 1221SOL     OW 5103   5.878   0.684   6.625  0.0953 -0.1203 -0.0976
 1221SOL    HW1 5104   5.857   0.714   6.537 -0.0968  0.1994  0.0542
 1221SOL    HW2 5105   5.862   0.590   6.624 -3.5575  0.3330  0.6093
 1222SOL     OW 5106   4.304   1.959   0.603 -0.0625  0.7263  0.0218
 1222SOL    HW1 5107   4.392   1.993   0.622  0.9033 -0.8151 -1.3489
 1222SOL    HW2 5108   4.317   1.864   0.593 -2.4048  0.0181  2.5768
 1223SOL     OW 5109   0.159   5.664  11.215 -0.1441 -0.3769  0.7608
 1223SOL    HW1 5110   0.132   5.575  11.235 -2.1023  0.0036  0.0239
 1223SOL    HW2 5111   0.107   5.689  11.139 -1.7647  2.3384  2.5762
 1224SOL     OW 5112   4.128   1.934   3.509 -0.3176 -0.2498 -0.0794
 1224SOL    HW1 5113   4.081   1.964   3.431  0.5608  2.8548  0.4664
 1224SOL    HW2 5114   4.067   1.874   3.553 -1.0579 -1.6171 -2.7598
 1225SOL     OW 5115   3.588   0.300  10.233  0.0532 -0.2970 -0.4068
 1225SOL    HW1 5116   3.612   0.350  10.311  0.5821 -1.2879  0.0846
 1225SOL    HW2 5117   3.496   0.278  10.245  0.4301 -1.4842  0.5577
 1226SOL     OW 5118   1.655   4.692   5.689 -0.5158 -0.2673  0.0016
 1226SOL    HW1 5119   1.673   4.694   5.595  0.4492  0.6225  0.1939
 1226SOL    HW2 5120   1.560   4.678   5.694 -0.2258 -3.4545 -1.0438
 1227SOL     OW 5121   1.411   0.894   9.715  0.1410  1.0193  0.4313
 1227SOL    HW1 5122   1.482   0.863   9.660  0.3246  0.4117  0.9981
 1227SOL    HW2 5123   1.452   0.958   9.773  0.5174 -0.2507  1.6118
 1228SOL     OW 5124   4.663   6.612   4.392 -0.0992  0.0513 -0.2436
 1228SOL    HW1 5125   4.717   6.631   4.315  1.6108  0.0173  0.8974
 1228SOL    HW2 5126   4.692   6.675   4.458  0.0432 -1.3277  1.0674
 1229SOL     OW 5127   7.862   6.317   0.625  0.6284  0.4419 -0.7071
 1229SOL    HW1 5128   7.927   6.253   0.654 -1.5331 -1.2932  0.6352
 1229SOL    HW2 5129   7.826   6.353   0.706 -0.8362  0.5117 -1.3588
 1230SOL     OW 5130   2.295   1.896  11.870  0.2357  0.1689  0.1265
 1230SOL    HW1 5131   2.227   1.843  11.830 -0.2355  0.1028  0.9873
 1230SOL    HW2 5132   2.253   1.980  11.887  0.1983 -0.0373  1.1328
 1231SOL     OW 5133   1.570   2.211   8.571  0.8994 -0.2296 -0.2152
 1231SOL    HW1 5134   1.602   2.127   8.541  0.0544 -0.6207 -0.0450
 1231SOL    HW2 5135   1.576   2.268   8.495  1.1103 -0.5444 -0.4344
 1232SOL     OW 5136   3.970   2.287   4.187  0.4961  0.2020 -0.0499
 1232SOL    HW1 5137   4.014   2.217   4.236  1.9014  1.3977  0.4836
 1232SOL    HW2 5138   3.958   2.357   4.251 -0.8563  0.4791 -0.5786
 1233SOL     OW 5139   5.855   6.196   3.068  0.3658 -0.5629  0.3284
 1233SOL    HW1 5140   5.905   6.277   3.054  0.4494 -0.7022 -0.1964
 1233SOL    HW2 5141   5.854   6.186   3.163  3.0406 -1.5808  0.3387
 1234SOL     OW 5142   5.280   6.101   8.747 -0.2138 -0.9396 -0.1453
 1234SOL    HW1 5143   5.336   6.055   8.810 -0.6773  0.1699  1.1270
 1234SOL    HW2 5144   5.306   6.066   8.662  2.9465  0.0269  0.2733
 1235SOL     OW 5145   3.811   3.341   0.802 -0.2990 -0.4017 -0.1927
 1235SOL    HW1 5146   3.796   3.248   0.786 -2.0830 -0.4943  1.6092
 1235SOL    HW2 5147   3.782   3.384   0.722  0.7529 -1.3723 -1.1337
 1236SOL     OW 5148   5.456   6.860   1.239 -0.2410 -0.1255  0.8865
 1236SOL    HW1 5149   5.392   6.790   1.228 -0.9722  0.6086  0.3814
 1236SOL    HW2 5150   5.506   6.861   1.158 -0.3701  0.0762  0.8090
 1237SOL     OW 5151   4.305   4.992  11.166  0.3162 -0.0468 -0.0546
 1237SOL    HW1 5152   4.324   4.921  11.104  0.4983  0.7976 -0.9854
 1237SOL    HW2 5153   4.383   4.997  11.221  0.4566 -0.3154 -0.2278
 1238SOL     OW 5154   7.896   4.871   1.282  0.0635  0.2077 -0.0992
 1238SOL    HW1 5155   7.887   4.778   1.262  0.3609  0.1667 -0.0443
 1238SOL    HW2 5156   7.910   4.913   1.197 -2.3691  0.5012 -0.4211
 1239SOL     OW 5157   6.008   4.128   5.431  0.4038  0.1322 -0.0576
 1239SOL    HW1 5158   6.013   4.070   5.355  1.2656  0.1387 -0.0174
 1239SOL    HW2 5159   6.093   4.172   5.433 -0.1971  1.3172 -0.0136
 1240SOL     OW 5160   6.573   0.317   3.117  0.6192 -0.3141  0.1668
 1240SOL    HW1 5161   6.526   0.294   3.037 -1.8001 -0.6637  1.5921
 1240SOL    HW2 5162   6.635   0.246   3.129  1.2361 -0.1095 -1.5162
 1241SOL     OW 5163   3.590   1.640  11.085 -0.3923 -0.2918  0.4135
 1241SOL    HW1 5164   3.561   1.593  11.163 -1.1304 -2.0771 -0.8714
 1241SOL    HW2 5165   3.663   1.694  11.115 -0.5172 -1.0985  2.2863
 1242SOL     OW 5166   6.899   4.847   0.103  0.3142  0.6811  0.6344
 1242SOL    HW1 5167   6.871   4.811   0.020  1.1852  2.0239 -0.2874
 1242SOL    HW2 5168   6.855   4.794   0.169 -1.7462  0.6551 -0.6761
 1243SOL     OW 5169   0.604   1.941   4.532 -0.8128 -0.0906  0.3796
 1243SOL    HW1 5170   0.590   2.019   4.584  0.2517 -0.6227  1.5099
 1243SOL    HW2 5171   0.651   1.972   4.454 -1.3447  0.5231  0.2891
 1244SOL     OW 5172   6.371   6.815  11.295  0.1516  0.0440 -0.1803
 1244SOL    HW1 5173   6.323   6.873  11.236  0.9781  0.2965 -0.6328
 1244SOL    HW2 5174   6.428   6.764  11.237  1.8663  1.1552  0.4651
 1245SOL     OW 5175   4.934   0.352   2.260 -0.5484  0.2919  0.2669
 1245SOL    HW1 5176   4.894   0.434   2.288 -0.3821  0.4201  0.1319
 1245SOL    HW2 5177   4.885   0.284   2.307 -0.3103  0.4968  0.8262
 1246SOL     OW 5178   7.091   4.173   0.134  0.3340  0.0778 -0.4972
 1246SOL    HW1 5179   7.045   4.128   0.063  1.9158 -0.3992 -1.2492
 1246SOL    HW2 5180   7.096   4.108   0.204  1.1134 -0.3632 -0.9513
 1247SOL     OW 5181   2.626   3.792   5.901  0.2961  0.1565 -0.3265
 1247SOL    HW1 5182   2.679   3.872   5.903 -0.7870  0.9721 -1.9308
 1247SOL    HW2 5183   2.685   3.723   5.930  1.1122  1.5929  1.6292
 1248SOL     OW 5184   5.894   5.758   2.021 -0.0373 -0.4770  0.2941
 1248SOL    HW1 5185   5.833   5.692   1.988 -0.7748 -0.3530  1.3482
 1248SOL    HW2 5186   5.966   5.708   2.059 -0.4110 -0.6845  0.7436
 1249SOL     OW 5187   2.577   1.873  10.476  0.0070 -0.1947  0.4478
 1249SOL    HW1 5188   2.563   1.963  10.449 -1.1694 -0.1460  1.1145
 1249SOL    HW2 5189   2.520   1.862  10.553  1.3696 -1.0219  1.3892
 1250SOL     OW 5190   6.677   6.051   7.637  0.4512  0.1806  0.3157
 1250SOL    HW1 5191   6.676   5.992   7.561  1.6559  0.5096  0.0196
 1250SOL    HW2 5192   6.599   6.027   7.687 -1.7660  1.5217 -2.1811
 1251SOL     OW 5193   1.719   3.979   6.560  0.5275  0.1391  0.3504
 1251SOL    HW1 5194   1.807   4.017   6.562  0.2924  0.6740  0.7022
 1251SOL    HW2 5195   1.717   3.920   6.635  0.6740 -0.0820  0.1827
 1252SOL     OW 5196   5.626   1.274   6.293  0.3360  0.3565  0.3770
 1252SOL    HW1 5197   5.629   1.311   6.205 -1.0269  1.5475  0.7905
 1252SOL    HW2 5198   5.670   1.339   6.348 -0.4000  0.4919  0.8255
 1253SOL     OW 5199   2.113   2.538  12.121 -0.5528 -0.0514 -0.0364
 1253SOL    HW1 5200   2.125   2.484  12.199 -2.3629  0.4332  0.6223
 1253SOL    HW2 5201   2.025   2.517  12.090  0.5538 -1.1637 -2.7274
 1254SOL     OW 5202   7.290   7.412   8.055  0.1776 -0.3758 -0.6190
 1254SOL    HW1 5203   7.384   7.418   8.074  0.6277 -3.6595 -1.2288
 1254SOL    HW2 5204   7.282   7.441   7.964  0.0650  2.4806  0.1833
 1255SOL     OW 5205   3.117   5.293  10.552  0.0971 -1.1232  0.0647
 1255SOL    HW1 5206   3.071   5.238  10.489 -1.2803 -0.0326  0.0653
 1255SOL    HW2 5207   3.134   5.374  10.505 -1.2166 -0.1730  1.1267
 1256SOL     OW 5208   3.669   1.312   2.892  0.5221 -0.6205 -0.6224
 1256SOL    HW1 5209   3.719   1.253   2.948  0.9991  0.7119  0.4275
 1256SOL    HW2 5210   3.715   1.396   2.898  0.8686 -0.5285 -3.4600
 1257SOL     OW 5211   1.778   0.823   8.450 -0.0809  0.2004 -0.7480
 1257SOL    HW1 5212   1.821   0.754   8.399 -0.2001 -0.7514  0.3822
 1257SOL    HW2 5213   1.703   0.849   8.396 -0.6365 -1.3068 -0.7572
 1258SOL     OW 5214   4.803   6.641   4.145 -0.3609  0.0333  0.3466
 1258SOL    HW1 5215   4.757   6.613   4.066 -0.3263 -2.3362  1.0675
 1258SOL    HW2 5216   4.891   6.662   4.115 -1.1655  2.2189 -0.6666
 1259SOL     OW 5217   1.197   6.550   2.656  0.1681  0.0372  0.0154
 1259SOL    HW1 5218   1.122   6.609   2.648 -0.6366 -0.9047  0.5021
 1259SOL    HW2 5219   1.260   6.583   2.592 -1.0686  0.2207 -1.1543
 1260SOL     OW 5220   1.729   2.054   1.708 -0.1570  0.0384 -0.1598
 1260SOL    HW1 5221   1.685   2.131   1.746 -1.2212 -0.7407  0.2329
 1260SOL    HW2 5222   1.816   2.086   1.683 -0.7994  1.5305 -0.5910
 1261SOL     OW 5223   6.540   7.681   7.300 -0.1363 -0.0892  0.1177
 1261SOL    HW1 5224   6.577   7.600   7.334 -0.7077  0.5514  2.5199
 1261SOL    HW2 5225   6.614   7.742   7.298  0.3211 -0.6629 -1.8152
 1262SOL     OW 5226   3.637   2.322   9.216 -0.1551 -0.7088 -0.4487
 1262SOL    HW1 5227   3.590   2.405   9.220 -0.7922 -1.0738  0.0499
 1262SOL    HW2 5228   3.671   2.310   9.305  1.8381  0.0635 -1.0701
 1263SOL     OW 5229   4.151   2.069   7.759  0.1733  0.1000  0.2153
 1263SOL    HW1 5230   4.093   2.028   7.694 -0.1524  1.6870 -0.5254
 1263SOL    HW2 5231   4.100   2.141   7.795  0.6977 -0.1863  1.5830
 1264SOL     OW 5232   0.813   6.091   2.392 -0.1184  0.0014  0.0286
 1264SOL    HW1 5233   0.900   6.074   2.357 -0.8792 -0.1598 -1.9422
 1264SOL    HW2 5234   0.770   6.005   2.390 -0.1705 -0.0247  1.5011
 1265SOL     OW 5235   0.846   7.810  11.439  0.0805  0.5717 -0.0465
 1265SOL    HW1 5236   0.766   7.853  11.469  1.0799  2.0440  0.6632
 1265SOL    HW2 5237   0.901   7.804  11.518  0.5496 -0.6944 -0.4500
 1266SOL     OW 5238   3.876   0.548  12.307  0.0056 -0.2358  0.3230
 1266SOL    HW1 5239   3.870   0.608  12.232 -0.4193 -1.3456 -0.5452
 1266SOL    HW2 5240   3.951   0.492  12.287 -0.5424 -1.0004  0.3797
 1267SOL     OW 5241   5.888   1.935   7.209 -0.5247 -0.4733  0.5169
 1267SOL    HW1 5242   5.806   1.984   7.199  0.4607  0.8477 -2.2074
 1267SOL    HW2 5243   5.943   1.991   7.265 -0.6963 -0.2624  0.4732
 1268SOL     OW 5244   1.170   1.584   5.388  0.1404 -0.2430  0.5989
 1268SOL    HW1 5245   1.185   1.669   5.345 -0.1679 -1.0034 -1.1179
 1268SOL    HW2 5246   1.083   1.592   5.426  0.4256  0.4680  1.1144
 1269SOL     OW 5247   6.379   2.260   0.773 -0.3251  0.1320 -0.4979
 1269SOL    HW1 5248   6.441   2.329   0.795  0.7504 -0.9953  0.1192
 1269SOL    HW2 5249   6.376   2.259   0.677 -0.3663  1.0336 -0.5067
 1270SOL     OW 5250   6.127   3.782  12.160  0.1694  0.1789  0.1676
 1270SOL    HW1 5251   6.205   3.796  12.214 -1.3715  0.8695  2.3592
 1270SOL    HW2 5252   6.111   3.688  12.166  0.1053  0.2249  0.8027
 1271SOL     OW 5253   6.541   4.886   4.917 -0.0577  0.5186  0.3591
 1271SOL    HW1 5254   6.553   4.809   4.973  0.3569  1.3625  1.4467
 1271SOL    HW2 5255   6.451   4.914   4.934 -1.1171 -1.1388 -1.9019
 1272SOL     OW 5256   0.834   5.956  10.266 -0.5157  0.2983 -0.6803
 1272SOL    HW1 5257   0.833   5.943  10.171 -1.8460  0.3515 -0.6982
 1272SOL    HW2 5258   0.898   6.026  10.279 -1.5296  1.4920 -1.7405
 1273SOL     OW 5259   1.328   6.939   6.054 -0.4327  0.0123  0.6195
 1273SOL    HW1 5260   1.334   7.011   6.117  2.2876  0.8457 -0.4291
 1273SOL    HW2 5261   1.405   6.884   6.074  0.0831 -0.1037 -1.4389
 1274SOL     OW 5262   6.880   6.188  10.848 -0.5080  0.2558  0.6380
 1274SOL    HW1 5263   6.879   6.237  10.766 -1.4825  1.1846  1.1867
 1274SOL    HW2 5264   6.808   6.125  10.840  0.7870 -1.1972 -0.0963
 1275SOL     OW 5265   0.387   3.598   9.458 -0.0089 -0.3734 -0.6972
 1275SOL    HW1 5266   0.343   3.678   9.428  2.3815  0.4215 -2.3983
 1275SOL    HW2 5267   0.350   3.529   9.404 -0.2209  0.0338 -1.0824
 1276SOL     OW 5268   7.114   0.283   5.746  0.5848 -0.1984 -0.3949
 1276SOL    HW1 5269   7.150   0.195   5.743 -0.4053 -0.6173 -0.3137
 1276SOL    HW2 5270   7.121   0.309   5.838  0.6425 -0.2969 -0.3720
 1277SOL     OW 5271   1.195   5.066   2.888 -0.7651 -0.3483 -0.4085
 1277SOL    HW1 5272   1.246   5.090   2.965 -1.5637  1.0594 -0.2810
 1277SOL    HW2 5273   1.240   5.108   2.815  0.8719 -2.9123 -1.0123
 1278SOL     OW 5274   6.454   1.259   9.764 -0.2064  0.0277 -0.0220
 1278SOL    HW1 5275   6.462   1.222   9.852 -1.0377 -0.5200 -0.1685
 1278SOL    HW2 5276   6.377   1.217   9.727 -0.6423  1.2338 -0.5312
 1279SOL     OW 5277   6.894   1.946   4.459 -0.5376  0.0468 -0.3238
 1279SOL    HW1 5278   6.955   1.956   4.386 -0.0857  1.8360  0.2564
 1279SOL    HW2 5279   6.807   1.958   4.419 -0.3956 -0.3848 -0.7819
 1280SOL     OW 5280   5.034   2.049   3.719  0.4466  0.0367 -0.0526
 1280SOL    HW1 5281   4.938   2.046   3.726  0.4649  0.8184  0.7302
 1280SOL    HW2 5282   5.063   2.073   3.807  1.4715 -1.7864  0.1705
 1281SOL     OW 5283   4.964   6.305  10.627  0.2003 -0.2350 -0.4128
 1281SOL    HW1 5284   4.911   6.237  10.586 -2.0381  2.0487 -1.5637
 1281SOL    HW2 5285   4.988   6.363  10.556  3.2577 -0.4217  0.3058
 1282SOL     OW 5286   0.220   2.623  10.989  0.0479  0.3606  0.1680
 1282SOL    HW1 5287   0.274   2.692  10.950  0.4901  2.1852  3.6053
 1282SOL    HW2 5288   0.276   2.546  10.989  0.8466  0.9130 -0.6462
 1283SOL     OW 5289   1.535   3.494   1.168 -0.3067 -0.1212 -0.2120
 1283SOL    HW1 5290   1.563   3.424   1.109 -3.0113 -1.4018 -0.1179
 1283SOL    HW2 5291   1.498   3.561   1.111 -1.8317 -0.8314 -0.1066
 1284SOL     OW 5292   3.736   1.439   5.017 -0.0507  0.4722  0.0938
 1284SOL    HW1 5293   3.676   1.502   4.975  0.7405  0.9897 -0.2910
 1284SOL    HW2 5294   3.694   1.354   5.004 -0.7350  0.8324 -0.1138
 1285SOL     OW 5295   4.077   1.006   1.012  0.0802  0.8028  0.2998
 1285SOL    HW1 5296   4.116   0.934   0.963  0.9802  2.3430 -1.3734
 1285SOL    HW2 5297   4.028   0.964   1.082  2.1778 -1.3413  0.5840
 1286SOL     OW 5298   6.490   7.165   1.371 -0.0308 -0.3148  0.2159
 1286SOL    HW1 5299   6.449   7.095   1.421  2.3314 -1.8879  0.1239
 1286SOL    HW2 5300   6.584   7.152   1.384  0.5212  2.6894 -0.0763
 1287SOL     OW 5301   4.568   6.328   0.324  0.1154 -0.6035 -0.0847
 1287SOL    HW1 5302   4.648   6.279   0.305  1.4628  2.1260 -2.0426
 1287SOL    HW2 5303   4.558   6.388   0.250 -2.8718  0.3106  0.8966
 1288SOL     OW 5304   3.972   4.650   8.272  0.0348 -0.4492  0.2128
 1288SOL    HW1 5305   4.018   4.590   8.213  1.8716  0.6835  0.4184
 1288SOL    HW2 5306   3.942   4.594   8.344  3.6909 -0.9499  1.5778
 1289SOL     OW 5307   1.537   5.060   1.564  0.1187  0.0729 -0.2979
 1289SOL    HW1 5308   1.517   4.987   1.506  0.6342  0.4676 -0.9796
 1289SOL    HW2 5309   1.519   5.138   1.513  1.7534  0.4421 -0.3817
 1290SOL     OW 5310   6.122   3.256   9.085  0.2223  0.3871  0.0912
 1290SOL    HW1 5311   6.069   3.320   9.036  0.9159  1.5788  0.8758
 1290SOL    HW2 5312   6.071   3.175   9.080 -1.5307  1.4138  0.5349
 1291SOL     OW 5313   0.566   2.387   4.868  0.3726 -0.5852  0.1742
 1291SOL    HW1 5314   0.640   2.329   4.886  0.6724  0.3360  2.0587
 1291SOL    HW2 5315   0.606   2.465   4.830  0.1355 -0.8994 -0.7503
 1292SOL     OW 5316   6.728   1.582   9.088  0.5500 -0.1064 -0.1792
 1292SOL    HW1 5317   6.708   1.641   9.160 -0.3021 -0.0515 -0.4470
 1292SOL    HW2 5318   6.673   1.614   9.016  3.4115  1.6380 -1.7857
 1293SOL     OW 5319   4.990   0.258   1.317 -0.8134  0.1829 -0.3081
 1293SOL    HW1 5320   5.031   0.336   1.280  1.3442 -0.7631 -0.0443
 1293SOL    HW2 5321   4.992   0.194   1.247 -2.0902  0.1664 -0.3556
 1294SOL     OW 5322   7.463   4.072   5.933 -0.1547 -0.0062  0.6991
 1294SOL    HW1 5323   7.535   4.021   5.897  0.4743  0.6981  0.9244
 1294SOL    HW2 5324   7.443   4.136   5.866  0.2519  0.5696  1.1087
 1295SOL     OW 5325   0.140   6.355   5.639 -0.4258 -0.0839  0.1741
 1295SOL    HW1 5326   0.062   6.404   5.665 -0.5010  0.2524 -0.6626
 1295SOL    HW2 5327   0.125   6.332   5.548  0.1513 -0.6272  0.2084
 1296SOL     OW 5328   5.092   5.940   9.801  0.2522 -0.4153 -0.1745
 1296SOL    HW1 5329   5.110   5.919   9.893 -0.6583 -1.0462 -0.1198
 1296SOL    HW2 5330   5.166   5.904   9.753  0.6242 -0.2777  0.2976
 1297SOL     OW 5331   7.192   1.565   3.855 -0.0452 -0.0208 -0.0836
 1297SOL    HW1 5332   7.129   1.637   3.860  0.2245  0.3191 -1.2724
 1297SOL    HW2 5333   7.258   1.587   3.921  0.7556  1.5709 -1.3375
 1298SOL     OW 5334   0.917   2.226   2.470  0.5775 -0.0153  0.2253
 1298SOL    HW1 5335   0.888   2.203   2.382  0.4155 -0.8930  0.4972
 1298SOL    HW2 5336   0.982   2.159   2.492 -0.4507 -0.6957  1.3340
 1299SOL     OW 5337   2.817   3.544  11.871  0.3465 -0.3919  0.0304
 1299SOL    HW1 5338   2.902   3.517  11.834  0.2345 -0.6972 -0.0078
 1299SOL    HW2 5339   2.795   3.625  11.825  0.0661 -0.9280 -0.7949
 1300SOL     OW 5340   5.096   3.956  12.380 -0.2287  0.1905  0.2539
 1300SOL    HW1 5341   5.067   4.032  12.431 -0.6508 -0.0958  0.4470
 1300SOL    HW2 5342   5.057   3.882  12.425 -1.5909 -0.0034 -1.1617
 1301SOL     OW 5343   0.442   1.197  10.319 -0.3533 -0.3968  0.1015
 1301SOL    HW1 5344   0.524   1.245  10.321  1.3355 -3.0679  0.1173
 1301SOL    HW2 5345   0.378   1.257  10.358  1.4995  1.8684 -0.1533
 1302SOL     OW 5346   7.081   6.522   8.086 -0.0247 -0.1347  0.4596
 1302SOL    HW1 5347   7.018   6.517   8.014 -1.6891  3.8975  1.3872
 1302SOL    HW2 5348   7.163   6.548   8.045 -0.3985  0.0074 -0.2038
 1303SOL     OW 5349   5.675   5.487   2.766  0.1482 -0.5003  0.0663
 1303SOL    HW1 5350   5.716   5.490   2.852 -0.0430 -1.5836  0.2087
 1303SOL    HW2 5351   5.584   5.510   2.783  0.3340  0.3117 -0.0084
 1304SOL     OW 5352   2.278   1.867   1.883 -0.2802  0.1101  0.3981
 1304SOL    HW1 5353   2.293   1.912   1.967 -0.1700  1.5435 -0.3686
 1304SOL    HW2 5354   2.256   1.937   1.822 -0.9663 -0.9903 -0.6468
 1305SOL     OW 5355   6.958   2.518   7.924 -0.3219 -0.4237 -0.1567
 1305SOL    HW1 5356   6.919   2.581   7.984  0.3501  1.0570 -1.2237
 1305SOL    HW2 5357   7.035   2.484   7.971 -0.0264  0.4220 -0.0100
 1306SOL     OW 5358   4.929   2.142   6.998 -0.2655  0.0068 -0.1604
 1306SOL    HW1 5359   4.860   2.147   6.932  0.1138  0.1290 -0.5516
 1306SOL    HW2 5360   4.944   2.048   7.010 -1.9350 -0.1063  1.4551
 1307SOL     OW 5361   3.292   5.901   5.727  0.0754  0.0804 -0.1766
 1307SOL    HW1 5362   3.300   5.986   5.684  1.3365  0.8275  1.4152
 1307SOL    HW2 5363   3.382   5.878   5.752 -0.4619 -0.8306  1.0350
 1308SOL     OW 5364   7.793   0.504  10.445  0.4280 -0.2029  0.3402
 1308SOL    HW1 5365   7.845   0.483  10.523 -2.3005 -0.9995  2.0627
 1308SOL    HW2 5366   7.738   0.577  10.472  0.0418  0.0889 -1.1669
 1309SOL     OW 5367   5.612   6.041  10.203  0.6886  0.1293 -0.6578
 1309SOL    HW1 5368   5.659   5.958  10.200 -0.3029 -0.5077  0.5218
 1309SOL    HW2 5369   5.646   6.085  10.281  0.0502  0.0953 -0.3539
 1310SOL     OW 5370   5.522   2.188  11.081 -0.4211  0.3819  0.6889
 1310SOL    HW1 5371   5.601   2.231  11.114  0.5633  0.0948 -1.1735
 1310SOL    HW2 5372   5.551   2.101  11.053 -1.7326 -0.3190  1.4184
 1311SOL     OW 5373   0.401   4.491   4.912 -0.6260 -1.1419 -0.4712
 1311SOL    HW1 5374   0.474   4.432   4.891 -0.7396 -1.9056  1.1299
 1311SOL    HW2 5375   0.372   4.525   4.827  1.9254 -0.3836 -1.1226
 1312SOL     OW 5376   2.400   6.640   5.760  0.1625 -0.1818 -0.3475
 1312SOL    HW1 5377   2.463   6.623   5.831 -0.4926 -2.2014 -0.1918
 1312SOL    HW2 5378   2.361   6.555   5.742 -2.3949  0.9705 -0.6053
 1313SOL     OW 5379   6.174   4.695   5.363 -0.2415 -0.0025  0.2685
 1313SOL    HW1 5380   6.091   4.658   5.393  0.1373 -1.5459 -0.4813
 1313SOL    HW2 5381   6.214   4.732   5.442 -1.1674 -0.1928  0.8398
 1314SOL     OW 5382   7.527   6.095   0.765  0.1780  0.1003  0.2747
 1314SOL    HW1 5383   7.463   6.166   0.768 -0.9297 -0.8656  0.0829
 1314SOL    HW2 5384   7.531   6.062   0.855 -0.8933 -0.9311 -0.0249
 1315SOL     OW 5385   5.597   5.277   8.883  0.0999  0.6618  0.2315
 1315SOL    HW1 5386   5.541   5.232   8.947 -0.3867 -1.1586 -1.3945
 1315SOL    HW2 5387   5.682   5.234   8.892  0.5504  1.6348  0.8539
 1316SOL     OW 5388   7.292   0.474   5.658  0.2798 -0.0938 -0.2675
 1316SOL    HW1 5389   7.357   0.516   5.602 -0.7315  0.0414 -1.3796
 1316SOL    HW2 5390   7.294   0.382   5.633  1.0687 -0.3795  0.7547
 1317SOL     OW 5391   3.403   3.213  11.153 -0.0397  0.2545  0.2857
 1317SOL    HW1 5392   3.399   3.303  11.119  1.0402  0.5902  0.9971
 1317SOL    HW2 5393   3.354   3.161  11.089  0.5277  1.1324 -0.8961
 1318SOL     OW 5394   6.788   2.030   5.024  0.0357  0.4758  0.6904
 1318SOL    HW1 5395   6.696   2.034   4.996 -0.6063  0.5964  2.6511
 1318SOL    HW2 5396   6.830   2.101   4.976 -0.5951 -0.3232 -1.1442
 1319SOL     OW 5397   4.515   1.881  11.252  0.4596  0.7109 -0.7495
 1319SOL    HW1 5398   4.464   1.838  11.321  2.3865 -1.2563 -0.4551
 1319SOL    HW2 5399   4.463   1.868  11.173 -0.5064  0.6345 -0.1196
 1320SOL     OW 5400   0.333   2.812   2.722 -0.4972 -0.7104 -0.0766
 1320SOL    HW1 5401   0.338   2.867   2.643 -0.9961 -0.5385  0.0108
 1320SOL    HW2 5402   0.413   2.759   2.719 -0.4823 -0.6598 -0.6619
 1321SOL     OW 5403   5.848   5.833  10.522  0.1195  0.0798 -0.4246
 1321SOL    HW1 5404   5.824   5.919  10.487 -0.2046  0.5122  0.8188
 1321SOL    HW2 5405   5.933   5.848  10.565  0.2958 -0.3430 -0.6204
 1322SOL     OW 5406   0.779   2.291   8.957  0.5117 -0.0344  0.0406
 1322SOL    HW1 5407   0.811   2.235   9.028 -0.3883  1.4676  1.7235
 1322SOL    HW2 5408   0.819   2.377   8.976 -1.2880  0.8740 -0.1154
 1323SOL     OW 5409   1.694   1.722  12.081 -0.0257 -0.1614  0.5694
 1323SOL    HW1 5410   1.636   1.759  12.015  0.5028 -0.1366  0.1107
 1323SOL    HW2 5411   1.781   1.722  12.040  0.4804  0.6964  1.5831
 1324SOL     OW 5412   1.872   3.113   1.636  0.8890 -0.0154 -0.2028
 1324SOL    HW1 5413   1.937   3.055   1.675  1.1902  0.0469 -0.6101
 1324SOL    HW2 5414   1.810   3.054   1.592  1.7277 -0.0026 -1.4451
 1325SOL     OW 5415   5.193   3.851   1.496 -0.1051 -0.2117 -0.1553
 1325SOL    HW1 5416   5.255   3.792   1.452  0.7573  1.1344 -0.8139
 1325SOL    HW2 5417   5.139   3.885   1.424 -0.8440 -0.4651  0.2706
 1326SOL     OW 5418   1.002   3.701   6.379  0.1710 -0.2055 -0.4501
 1326SOL    HW1 5419   0.970   3.659   6.299  0.0817  0.1807 -0.6208
 1326SOL    HW2 5420   0.924   3.733   6.422  0.1814 -0.7813  0.0113
 1327SOL     OW 5421   5.729   5.599  10.456 -0.0274  0.5178  0.0523
 1327SOL    HW1 5422   5.773   5.683  10.469 -1.3657  1.1806  0.4466
 1327SOL    HW2 5423   5.796   5.534  10.477  1.3613  1.4358 -1.2898
 1328SOL     OW 5424   4.160   7.919   9.097  0.9012  0.7154 -0.1923
 1328SOL    HW1 5425   4.177   8.012   9.106  1.8052  0.5453 -0.0500
 1328SOL    HW2 5426   4.246   7.878   9.106  0.6685 -0.0604 -1.3091
 1329SOL     OW 5427   1.290   2.497   5.386 -0.1749 -0.1874 -0.5057
 1329SOL    HW1 5428   1.217   2.557   5.371  0.5795  1.7054  2.5510
 1329SOL    HW2 5429   1.369   2.550   5.369  0.5102 -1.1330 -0.3531
 1330SOL     OW 5430   1.127   1.404   1.536 -0.2028 -0.0942 -0.5611
 1330SOL    HW1 5431   1.153   1.493   1.511 -0.0034  0.1690  0.5451
 1330SOL    HW2 5432   1.138   1.401   1.631  0.1304 -1.4196 -0.6191
 1331SOL     OW 5433   0.719   2.782   1.872 -0.6398 -0.1835  0.4809
 1331SOL    HW1 5434   0.808   2.798   1.842 -1.4694  1.1527 -1.4649
 1331SOL    HW2 5435   0.721   2.694   1.909  1.3409 -0.4037 -0.0694
 1332SOL     OW 5436   3.092   2.036   6.842  0.1690 -0.6046  0.1286
 1332SOL    HW1 5437   3.081   2.064   6.933  0.2288 -0.9156  0.2309
 1332SOL    HW2 5438   3.159   1.968   6.845  0.2352 -0.5550 -0.1607
 1333SOL     OW 5439   0.955   1.914  10.434  0.3057 -0.2647  0.3853
 1333SOL    HW1 5440   0.984   1.922  10.525  1.9003 -1.0383 -0.0137
 1333SOL    HW2 5441   1.033   1.938  10.383 -0.9726  1.6001 -0.8222
 1334SOL     OW 5442   5.285   2.084   3.591  0.0582 -0.2249 -0.4106
 1334SOL    HW1 5443   5.275   2.096   3.496  1.4042  1.5556 -0.3791
 1334SOL    HW2 5444   5.195   2.073   3.623 -0.3205 -2.7587 -2.0632
 1335SOL     OW 5445   5.900   0.718   0.191 -0.0588  0.1903  0.8084
 1335SOL    HW1 5446   5.832   0.744   0.130 -1.2998 -0.1536  1.9759
 1335SOL    HW2 5447   5.978   0.766   0.164 -0.8079  0.7225 -0.4653
 1336SOL     OW 5448   3.528   0.974   6.074 -0.2621 -0.0804 -0.5646
 1336SOL    HW1 5449   3.573   0.980   5.990 -3.4615 -2.8497 -2.7574
 1336SOL    HW2 5450   3.528   0.881   6.095 -0.2422  0.4625  2.1412
 1337SOL     OW 5451   6.035   5.496   2.953  0.2829 -0.1056  0.3545
 1337SOL    HW1 5452   6.061   5.562   3.017 -2.0399  2.5330 -1.2277
 1337SOL    HW2 5453   5.951   5.464   2.984  0.8808 -1.6214  0.5240
 1338SOL     OW 5454   3.135   7.276   0.902 -1.0795  0.0039  0.1759
 1338SOL    HW1 5455   3.177   7.191   0.910 -0.1687  0.3551 -0.5901
 1338SOL    HW2 5456   3.193   7.325   0.843 -1.2628  1.3593  1.0947
 1339SOL     OW 5457   6.958   4.416  10.256  0.3684  0.0050 -0.1788
 1339SOL    HW1 5458   6.897   4.381  10.321 -0.0527  0.0710 -0.5302
 1339SOL    HW2 5459   7.044   4.396  10.290  0.1714 -2.5000 -0.9353
 1340SOL     OW 5460   7.893   1.401   7.291 -0.4637 -0.1450  0.0779
 1340SOL    HW1 5461   7.896   1.415   7.196  0.3991  2.0696  0.3659
 1340SOL    HW2 5462   7.827   1.333   7.304  0.8318 -1.9731 -2.2349
 1341SOL     OW 5463   3.434   3.009  10.632  0.4124 -0.3776  0.9077
 1341SOL    HW1 5464   3.518   2.966  10.617  0.4229 -0.9082  2.3375
 1341SOL    HW2 5465   3.369   2.939  10.629  0.0740 -0.0569  0.4090
 1342SOL     OW 5466   2.393   1.722   5.270 -0.7382  0.3869  0.1496
 1342SOL    HW1 5467   2.455   1.724   5.342 -0.0984 -0.9572 -0.3185
 1342SOL    HW2 5468   2.417   1.644   5.220 -3.8246 -1.1832  0.8711
 1343SOL     OW 5469   1.148   7.483   6.228 -0.1087  0.1918 -0.3124
 1343SOL    HW1 5470   1.188   7.505   6.144 -2.0734  0.4453 -1.2522
 1343SOL    HW2 5471   1.080   7.550   6.240  0.9684  0.9246  2.1374
 1344SOL     OW 5472   7.100   5.602  11.956 -0.8841  0.7085 -0.2028
 1344SOL    HW1 5473   7.165   5.547  11.911 -1.4321 -0.6607  0.5899
 1344SOL    HW2 5474   7.073   5.666  11.891 -0.5054 -0.2284 -1.3154
 1345SOL     OW 5475   0.286   3.237   4.208 -0.1546 -0.2989 -0.1387
 1345SOL    HW1 5476   0.309   3.191   4.289  1.7842  0.3617 -0.2654
 1345SOL    HW2 5477   0.352   3.210   4.145  0.3496  1.7306 -0.5472
 1346SOL     OW 5478   6.240   5.812   7.912 -0.0111  0.2617  0.1034
 1346SOL    HW1 5479   6.284   5.825   7.828  3.1702  0.9234  1.7250
 1346SOL    HW2 5480   6.219   5.719   7.914 -0.6034  0.3302 -1.5832
 1347SOL     OW 5481   4.713   0.410   2.993  0.1745  0.4612 -0.0108
 1347SOL    HW1 5482   4.725   0.502   3.020  1.8420  0.3556 -0.2557
 1347SOL    HW2 5483   4.626   0.407   2.955 -0.8432  1.4144  2.1050
 1348SOL     OW 5484   5.512   5.230   3.343 -0.1198  0.0535 -0.3953
 1348SOL    HW1 5485   5.587   5.201   3.395 -0.8407 -0.3425  0.4446
 1348SOL    HW2 5486   5.496   5.158   3.282 -0.4658 -0.3185  0.1302
 1349SOL     OW 5487   1.348   4.002  12.205  0.3050 -0.3808  0.6485
 1349SOL    HW1 5488   1.349   4.064  12.278  0.9978 -1.4865  1.6125
 1349SOL    HW2 5489   1.326   4.055  12.129  2.7871  1.4538  1.1007
 1350SOL     OW 5490   2.781   6.990   4.362  0.1664 -0.0035  0.2413
 1350SOL    HW1 5491   2.868   7.022   4.384  0.1840  1.8976 -2.2036
 1350SOL    HW2 5492   2.796   6.921   4.297 -0.1380  0.8448 -0.7529
 1351SOL     OW 5493   7.268   7.143   8.400 -0.8307 -0.5324 -0.3378
 1351SOL    HW1 5494   7.192   7.086   8.415 -0.8627 -0.5797 -0.6615
 1351SOL    HW2 5495   7.231   7.221   8.358 -0.6258 -0.8080 -1.0363
 1352SOL     OW 5496   0.361   4.401  12.289  0.1992  0.6075  0.3404
 1352SOL    HW1 5497   0.335   4.408  12.198 -1.9125 -0.5911  0.7819
 1352SOL    HW2 5498   0.457   4.398  12.287  0.4532  4.4610 -1.4706
 1353SOL     OW 5499   4.890   7.182   7.475 -0.2545 -0.1648  0.1930
 1353SOL    HW1 5500   4.869   7.126   7.550  2.3377 -1.7913 -0.1778
 1353SOL    HW2 5501   4.849   7.266   7.497 -1.8434 -1.3413  2.1414
 1354SOL     OW 5502   7.817   7.827  10.515 -0.4871 -0.0256 -0.1537
 1354SOL    HW1 5503   7.754   7.819  10.443 -0.7348  0.2024  0.0334
 1354SOL    HW2 5504   7.812   7.919  10.541 -0.3975 -0.1056  0.1500
 1355SOL     OW 5505   3.937   0.645   6.733 -0.4927 -0.2053  0.6808
 1355SOL    HW1 5506   3.936   0.625   6.827 -1.2435 -0.1270  0.6951
 1355SOL    HW2 5507   3.951   0.560   6.690  1.4381 -0.0436  0.8971
 1356SOL     OW 5508   7.316   7.104   3.655 -0.3776  0.2453  0.2914
 1356SOL    HW1 5509   7.249   7.158   3.614  0.8916  0.6499 -1.3525
 1356SOL    HW2 5510   7.369   7.072   3.583  1.3914  0.1964  1.5280
 1357SOL     OW 5511   4.310   5.648   7.632 -0.1114  0.2284  0.2602
 1357SOL    HW1 5512   4.227   5.635   7.587 -0.0299 -0.9755  0.4194
 1357SOL    HW2 5513   4.360   5.707   7.576 -0.1374 -0.9722 -1.0874
 1358SOL     OW 5514   1.929   2.202   0.011  0.2385  0.1130  0.4623
 1358SOL    HW1 5515   1.869   2.186   0.083 -0.9673  3.3046  0.3476
 1358SOL    HW2 5516   1.880   2.259  -0.049  1.3651 -1.9208 -2.6788
 1359SOL     OW 5517   1.155   4.692   6.367 -0.4785 -0.3047 -0.2251
 1359SOL    HW1 5518   1.098   4.769   6.364  0.0765  0.0833 -1.0484
 1359SOL    HW2 5519   1.214   4.703   6.293 -0.1040 -1.3060 -0.0849
 1360SOL     OW 5520   3.934   6.866   1.234 -0.0435 -0.3342  0.0474
 1360SOL    HW1 5521   3.908   6.802   1.168 -0.3022  0.5018 -0.6798
 1360SOL    HW2 5522   3.879   6.847   1.310  1.1927 -2.1655  0.5323
 1361SOL     OW 5523   7.053   2.292  10.364  0.3130  0.4901 -0.5005
 1361SOL    HW1 5524   6.972   2.327  10.401 -0.1357 -1.1536  0.1638
 1361SOL    HW2 5525   7.118   2.359  10.380 -0.3262  0.6969  1.4781
 1362SOL     OW 5526   4.828   5.874  12.118  0.0880 -0.5076  0.0175
 1362SOL    HW1 5527   4.813   5.787  12.080  0.5057 -0.5352 -0.0864
 1362SOL    HW2 5528   4.922   5.888  12.110 -0.2059  0.8477 -1.9571
 1363SOL     OW 5529   3.710   0.036  10.226 -0.6738  0.0934 -0.2313
 1363SOL    HW1 5530   3.686   0.129  10.217  0.9937  0.3716 -3.0523
 1363SOL    HW2 5531   3.643  -0.011  10.177  0.0083  0.1375 -1.2527
 1364SOL     OW 5532   6.730   7.276   8.402  0.1130  0.0154  0.2292
 1364SOL    HW1 5533   6.691   7.363   8.407 -0.5041 -0.1549 -1.0561
 1364SOL    HW2 5534   6.770   7.272   8.315  1.8627 -0.3088  1.0054
 1365SOL     OW 5535   7.189   2.496   7.435  0.0502 -0.3838 -0.5976
 1365SOL    HW1 5536   7.192   2.402   7.417  0.2973 -0.7932  1.3251
 1365SOL    HW2 5537   7.143   2.502   7.519 -0.7692  1.2946 -1.1371
 1366SOL     OW 5538   6.920   6.478   4.985 -0.1274  0.1785  0.6056
 1366SOL    HW1 5539   6.937   6.568   5.012  0.2064  0.6176 -0.9828
 1366SOL    HW2 5540   6.833   6.480   4.946  0.8405  0.3873 -1.6881
 1367SOL     OW 5541   5.622   5.600   0.569  0.5425 -0.6458  1.0332
 1367SOL    HW1 5542   5.612   5.612   0.663 -2.0049 -2.2737  1.0773
 1367SOL    HW2 5543   5.600   5.508   0.554 -2.3060  0.2586 -1.4169
 1368SOL     OW 5544   2.644   4.709   8.593  0.2343  0.3654  0.5711
 1368SOL    HW1 5545   2.736   4.734   8.600  0.1448  0.3727  2.1459
 1368SOL    HW2 5546   2.622   4.722   8.501  2.1383 -0.7859 -0.1182
 1369SOL     OW 5547   1.221   0.590   2.263 -0.7684  0.0130  0.5218
 1369SOL    HW1 5548   1.210   0.562   2.353  0.7760 -0.3264  0.6330
 1369SOL    HW2 5549   1.293   0.653   2.266  0.1257 -0.9150 -0.6178
 1370SOL     OW 5550   1.186   7.575   5.137 -0.2861  0.0001  0.0709
 1370SOL    HW1 5551   1.119   7.570   5.205 -0.2085  0.3560  0.1770
 1370SOL    HW2 5552   1.206   7.668   5.130 -1.8371  0.2739 -1.9332
 1371SOL     OW 5553   0.334   6.772   7.700 -0.5189  0.2106  0.4224
 1371SOL    HW1 5554   0.239   6.771   7.696 -0.7281 -1.6104  3.1774
 1371SOL    HW2 5555   0.357   6.696   7.755  2.4096  1.6602  1.4232
 1372SOL     OW 5556   5.254   5.985   7.841 -0.2538  0.1597 -0.2523
 1372SOL    HW1 5557   5.170   5.946   7.867 -0.4881 -1.4077 -3.0207
 1372SOL    HW2 5558   5.263   5.962   7.749  3.3462  0.0965 -0.0041
 1373SOL     OW 5559   2.643   2.723  12.435 -0.3084  0.8233 -0.3908
 1373SOL    HW1 5560   2.714   2.680  12.483 -1.4353 -0.8307 -0.1549
 1373SOL    HW2 5561   2.662   2.703  12.343  0.2621  1.5682 -0.4528
 1374SOL     OW 5562   5.841   1.611   7.916 -0.2815  0.1214 -0.1491
 1374SOL    HW1 5563   5.856   1.666   7.839  1.4300 -0.8471 -0.5533
 1374SOL    HW2 5564   5.822   1.524   7.880 -0.7890 -0.0431  0.5028
 1375SOL     OW 5565   3.372   6.477   4.872 -0.0716  0.2859  0.4939
 1375SOL    HW1 5566   3.345   6.386   4.864  2.3179 -0.4736  0.2163
 1375SOL    HW2 5567   3.336   6.520   4.794 -0.2609 -0.7051  0.0220
 1376SOL     OW 5568   6.743   3.458  11.549 -0.2884 -0.2100 -0.2915
 1376SOL    HW1 5569   6.652   3.466  11.577 -0.2467  0.2963 -0.2823
 1376SOL    HW2 5570   6.746   3.503  11.465 -0.1975 -0.8491 -0.6358
 1377SOL     OW 5571   6.764   7.827   9.738 -0.1344  0.0224 -0.0524
 1377SOL    HW1 5572   6.735   7.780   9.816  0.0546  0.6189  0.3905
 1377SOL    HW2 5573   6.828   7.769   9.697  0.8902  0.3242  1.0596
 1378SOL     OW 5574   2.704   5.201   1.574  0.3570  0.1769 -0.1656
 1378SOL    HW1 5575   2.729   5.285   1.537  0.1832 -0.6034 -2.1576
 1378SOL    HW2 5576   2.781   5.145   1.565 -0.5040 -0.8124 -1.8999
 1379SOL     OW 5577   0.749   4.167   4.128  0.3181 -0.0106 -0.3003
 1379SOL    HW1 5578   0.677   4.111   4.159 -0.6305  0.5103 -1.4921
 1379SOL    HW2 5579   0.705   4.241   4.086  1.5658  0.8714 -0.0896
 1380SOL     OW 5580   0.023   2.427   4.008 -0.0828  0.0651  0.4822
 1380SOL    HW1 5581   0.092   2.379   3.964 -3.0658 -1.5487 -2.9771
 1380SOL    HW2 5582   0.004   2.501   3.950 -3.4972 -1.5775 -0.7943
 1381SOL     OW 5583   6.505   0.431   0.040 -0.6340  0.3090  0.1316
 1381SOL    HW1 5584   6.543   0.504   0.088 -0.0945 -0.6438  1.1931
 1381SOL    HW2 5585   6.577   0.394  -0.010 -0.8653  0.3783 -0.2609
 1382SOL     OW 5586   5.498   4.984   4.583 -0.1182 -0.4048 -0.6409
 1382SOL    HW1 5587   5.554   4.990   4.661 -1.1492 -1.5231  0.2117
 1382SOL    HW2 5588   5.544   4.923   4.525 -0.3965 -1.2701  0.0308
 1383SOL     OW 5589   5.754   7.694   5.021 -0.0950  0.2913  0.1041
 1383SOL    HW1 5590   5.820   7.763   5.028  1.2292 -0.7864 -1.1165
 1383SOL    HW2 5591   5.676   7.731   5.063  1.0008  1.9510  0.7849
 1384SOL     OW 5592   5.083   2.165  11.149 -0.2617 -0.2711  0.3078
 1384SOL    HW1 5593   5.148   2.192  11.213 -0.4443 -0.0478  0.4036
 1384SOL    HW2 5594   5.105   2.074  11.128  1.1428  0.3270 -0.9669
 1385SOL     OW 5595   4.094   7.499   8.600 -0.1215 -0.4251 -0.1153
 1385SOL    HW1 5596   4.173   7.447   8.589 -0.6555 -1.4755  0.7777
 1385SOL    HW2 5597   4.023   7.441   8.572 -0.8880 -0.8517  2.4739
 1386SOL     OW 5598   6.288   4.390   1.989  0.3993  0.2805  0.4952
 1386SOL    HW1 5599   6.197   4.378   2.014  1.1418 -1.6131  2.5976
 1386SOL    HW2 5600   6.317   4.303   1.962  1.1531  1.1932 -1.9520
 1387SOL     OW 5601   4.517   6.866   2.976 -0.4335  0.3894 -0.2790
 1387SOL    HW1 5602   4.584   6.809   2.939  1.7532  2.3493  0.3835
 1387SOL    HW2 5603   4.503   6.834   3.065  1.2979  1.2015  0.3341
 1388SOL     OW 5604   0.704   0.007  12.059 -0.0447  0.3824  0.7684
 1388SOL    HW1 5605   0.684  -0.047  11.983  0.6464  1.2604 -0.0662
 1388SOL    HW2 5606   0.619   0.031  12.095 -0.4191  0.8277 -0.3685
 1389SOL     OW 5607   1.205   3.182   1.118  1.1363  0.2335  0.2784
 1389SOL    HW1 5608   1.203   3.247   1.048 -0.0543  0.7485  0.7562
 1389SOL    HW2 5609   1.254   3.224   1.188  1.7305 -0.0164  0.0253
 1390SOL     OW 5610   3.973   1.924  12.408  0.3468  0.0258  0.3854
 1390SOL    HW1 5611   3.916   1.982  12.358 -0.5052 -1.5807 -0.5612
 1390SOL    HW2 5612   3.956   1.837  12.373  3.0475 -0.5818  0.4005
 1391SOL     OW 5613   4.061   5.457   2.082  0.8947  0.7951  0.1418
 1391SOL    HW1 5614   4.137   5.401   2.097  1.8320  1.4382 -1.8160
 1391SOL    HW2 5615   4.013   5.415   2.010 -1.4447 -0.3388  2.2285
 1392SOL     OW 5616   4.179   3.910   2.685  0.2056  0.1868  0.1917
 1392SOL    HW1 5617   4.095   3.883   2.723  0.7754 -1.0157  0.6473
 1392SOL    HW2 5618   4.228   3.947   2.758  0.0176  1.0486 -0.1112
 1393SOL     OW 5619   2.257   6.895  10.495 -0.1234  0.1514  0.4190
 1393SOL    HW1 5620   2.243   6.978  10.540  1.5443  1.2167 -0.8679
 1393SOL    HW2 5621   2.200   6.899  10.419 -0.5012 -0.1650  0.6844
 1394SOL     OW 5622   1.074   5.912   7.767  0.0617 -0.1231  0.1944
 1394SOL    HW1 5623   1.164   5.914   7.735  0.4696 -0.1871  1.2899
 1394SOL    HW2 5624   1.023   5.878   7.694  0.6599  1.5076 -1.0323
 1395SOL     OW 5625   6.141   0.094   8.861  0.1834 -0.7463  0.4612
 1395SOL    HW1 5626   6.087   0.016   8.849 -1.0967 -0.0443  1.4116
 1395SOL    HW2 5627   6.229   0.060   8.876  0.0737 -1.9109 -1.2811
 1396SOL     OW 5628   4.314   7.784   0.937  0.2511 -0.7473  0.3051
 1396SOL    HW1 5629   4.371   7.860   0.948 -1.4900  1.0860 -2.0854
 1396SOL    HW2 5630   4.232   7.809   0.980 -0.8131 -0.5804 -1.6889
 1397SOL     OW 5631   6.721   1.687   6.169  0.2556  0.3789  0.0322
 1397SOL    HW1 5632   6.795   1.726   6.122  0.8209  1.0155  1.4036
 1397SOL    HW2 5633   6.644   1.718   6.121  0.8336  0.3602 -0.9436
 1398SOL     OW 5634   1.568   2.805   6.759 -0.7056  0.1781  0.2899
 1398SOL    HW1 5635   1.543   2.784   6.669 -0.0698 -0.2035  0.1897
 1398SOL    HW2 5636   1.546   2.897   6.769 -4.2182 -0.5887  0.9420
 1399SOL     OW 5637   5.907   5.024   2.554 -0.1881 -0.1338 -0.5722
 1399SOL    HW1 5638   5.883   5.084   2.625 -1.8408 -1.5051  0.1211
 1399SOL    HW2 5639   5.931   5.080   2.481  0.2258  1.3366  0.6443
 1400SOL     OW 5640   0.605   4.033   7.758  0.4826  0.3793  0.0869
 1400SOL    HW1 5641   0.523   3.985   7.771 -1.0974  2.3787 -1.8849
 1400SOL    HW2 5642   0.659   3.973   7.707  1.0491 -1.6495  2.8264
 1401SOL     OW 5643   3.495   2.801   0.889 -0.3517  0.3648  0.3863
 1401SOL    HW1 5644   3.473   2.719   0.933  2.1530 -1.0381 -0.7655
 1401SOL    HW2 5645   3.589   2.810   0.900 -0.2160  1.9107 -1.4599
 1402SOL     OW 5646   6.800   6.153   8.033 -0.1622 -0.1731  0.0120
 1402SOL    HW1 5647   6.829   6.100   7.960 -1.7000  1.2056 -1.6928
 1402SOL    HW2 5648   6.731   6.102   8.075  0.0652 -0.5687 -0.0988
 1403SOL     OW 5649   7.215   0.421   7.898 -0.8981  0.5136 -0.0191
 1403SOL    HW1 5650   7.153   0.376   7.840 -0.5012 -0.5972  0.3886
 1403SOL    HW2 5651   7.162   0.489   7.941 -2.0389 -0.8824  0.8789
 1404SOL     OW 5652   2.592   6.671   8.007  0.2388  0.3699  0.2627
 1404SOL    HW1 5653   2.614   6.718   7.926  3.3512  2.0617  1.9326
 1404SOL    HW2 5654   2.671   6.623   8.030 -0.4932  0.0911  2.4130
 1405SOL     OW 5655   4.813   0.032   7.520 -0.6427 -0.3459  0.3269
 1405SOL    HW1 5656   4.810  -0.058   7.487  0.7759 -0.4160  0.3148
 1405SOL    HW2 5657   4.734   0.073   7.486 -1.0056 -1.4169 -0.1651
 1406SOL     OW 5658   2.918   0.817   3.485 -0.3158  0.1232 -0.0458
 1406SOL    HW1 5659   2.874   0.897   3.514  0.4585  0.0060  1.5727
 1406SOL    HW2 5660   2.934   0.768   3.566  0.5001 -1.0002 -0.8613
 1407SOL     OW 5661   5.783   6.303   4.558 -0.3149 -0.4477 -0.1987
 1407SOL    HW1 5662   5.792   6.210   4.538 -2.8866 -1.2850  1.9638
 1407SOL    HW2 5663   5.784   6.307   4.654  1.0139  1.9705 -0.2300
 1408SOL     OW 5664   3.803   7.401  10.360  0.2568  0.1366  0.5606
 1408SOL    HW1 5665   3.815   7.310  10.388  2.2723 -0.1007 -0.8602
 1408SOL    HW2 5666   3.761   7.395  10.275  0.6760  0.5060  0.3238
 1409SOL     OW 5667   4.047   6.928   0.074 -0.1270 -0.2696 -0.6397
 1409SOL    HW1 5668   4.093   6.955   0.153  0.1136 -0.8155 -0.5904
 1409SOL    HW2 5669   3.965   6.977   0.076 -0.9248 -1.5684  0.8850
 1410SOL     OW 5670   3.579   3.182   7.734  0.7829  0.0064  0.4650
 1410SOL    HW1 5671   3.605   3.113   7.795 -1.5660 -1.4092 -0.0007
 1410SOL    HW2 5672   3.486   3.198   7.755  0.6939  1.5106 -0.8879
 1411SOL     OW 5673   6.122   2.346   3.960  0.5667 -0.1598 -0.0211
 1411SOL    HW1 5674   6.149   2.340   4.052  1.1021  0.5049 -0.1248
 1411SOL    HW2 5675   6.160   2.429   3.930  2.4987 -1.5153 -1.5464
 1412SOL     OW 5676   0.321   5.007  12.363 -0.1440  0.0614  0.5499
 1412SOL    HW1 5677   0.289   4.989  12.451 -1.3776 -1.3847 -0.1530
 1412SOL    HW2 5678   0.335   4.921  12.324  2.7884  0.6299  0.1155
 1413SOL     OW 5679   2.626   0.093   0.207  0.0376  0.6490 -0.1519
 1413SOL    HW1 5680   2.682   0.167   0.184  1.8096 -1.2630 -2.7176
 1413SOL    HW2 5681   2.684   0.031   0.250 -0.0274 -1.2401 -2.5413
 1414SOL     OW 5682   3.306   0.121   7.572 -0.1343  0.2040 -0.0365
 1414SOL    HW1 5683   3.379   0.163   7.617 -0.0708 -0.0511  0.1038
 1414SOL    HW2 5684   3.296   0.169   7.490  1.5646 -1.0883 -1.0490
 1415SOL     OW 5685   0.699   0.594  10.972 -0.2813  0.0894  0.5545
 1415SOL    HW1 5686   0.668   0.539  11.045  0.9362  1.4374  2.1777
 1415SOL    HW2 5687   0.668   0.549  10.893 -1.9699 -1.2582  1.8908
 1416SOL     OW 5688   6.124   5.533   0.030 -0.4197 -0.2626 -0.3918
 1416SOL    HW1 5689   6.106   5.492  -0.054 -2.8537 -1.0926  0.4344
 1416SOL    HW2 5690   6.206   5.493   0.060 -0.0995 -0.7476 -1.8575
 1417SOL     OW 5691   4.869   0.101   0.594  0.3909  0.8376 -0.4021
 1417SOL    HW1 5692   4.819   0.156   0.534 -1.0645  0.0464  0.0377
 1417SOL    HW2 5693   4.945   0.154   0.617  0.4838  1.5383 -2.1593
 1418SOL     OW 5694   3.604   7.161  10.681  0.2223  0.1722  0.8076
 1418SOL    HW1 5695   3.560   7.180  10.598  1.2386  0.5770  0.3428
 1418SOL    HW2 5696   3.538   7.117  10.734 -0.1379 -1.0558 -0.5980
 1419SOL     OW 5697   5.890   7.610   9.406 -0.0575 -0.7899 -0.1451
 1419SOL    HW1 5698   5.902   7.520   9.435 -0.0859 -0.2907  1.5076
 1419SOL    HW2 5699   5.978   7.649   9.414 -0.0201 -0.6810 -0.9590
 1420SOL     OW 5700   7.537   6.270  11.282  0.3232 -0.1999  0.1118
 1420SOL    HW1 5701   7.591   6.348  11.294  0.2562  0.1589 -1.6509
 1420SOL    HW2 5702   7.459   6.301  11.238 -0.2437 -1.0988  0.4570
 1421SOL     OW 5703   1.583   7.026   2.844 -0.1764 -1.1492  0.7984
 1421SOL    HW1 5704   1.659   7.083   2.835 -1.6362  0.7113 -0.4881
 1421SOL    HW2 5705   1.579   7.005   2.937  1.2646 -0.3569  1.0582
 1422SOL     OW 5706   3.861   0.653   8.061  0.3205 -0.3531 -0.6751
 1422SOL    HW1 5707   3.793   0.715   8.089 -0.2341 -0.4399 -1.7631
 1422SOL    HW2 5708   3.936   0.673   8.117  0.5686  2.1454 -1.7320
 1423SOL     OW 5709   5.808   6.214  11.571  0.9685 -0.3187 -0.0867
 1423SOL    HW1 5710   5.819   6.291  11.626  1.6664 -0.1824 -0.3989
 1423SOL    HW2 5711   5.761   6.245  11.494 -1.5122 -0.8492  1.1438
 1424SOL     OW 5712   4.445   3.085  10.514  0.0699  0.1163  0.3067
 1424SOL    HW1 5713   4.528   3.116  10.552  1.0707 -0.9878 -0.8665
 1424SOL    HW2 5714   4.383   3.156  10.531  0.9365  0.4480  2.2838
 1425SOL     OW 5715   7.856   5.879   5.743 -0.2337 -0.9218  0.2518
 1425SOL    HW1 5716   7.948   5.854   5.732 -0.0404 -0.5713  0.9826
 1425SOL    HW2 5717   7.807   5.810   5.698  0.3590 -1.6981  0.7526
 1426SOL     OW 5718   6.277   1.982   5.173  0.8020  0.5270 -0.5085
 1426SOL    HW1 5719   6.331   2.022   5.241  0.2978  0.4136 -0.0382
 1426SOL    HW2 5720   6.242   2.055   5.122 -1.1691  0.7993  1.1349
 1427SOL     OW 5721   5.774   7.079   9.779  0.2543  0.3648  0.3524
 1427SOL    HW1 5722   5.865   7.106   9.767  0.0158  1.0920  0.1011
 1427SOL    HW2 5723   5.778   7.011   9.846  0.9721  0.4647  0.4206
 1428SOL     OW 5724   4.057   0.019   2.636  0.0639  0.0980  0.8676
 1428SOL    HW1 5725   4.139  -0.030   2.634 -0.4035 -0.6895 -0.4215
 1428SOL    HW2 5726   4.065   0.077   2.712  1.9671  0.3387  0.5196
 1429SOL     OW 5727   0.087   0.260   7.419  0.1862 -0.7511 -0.3070
 1429SOL    HW1 5728   0.075   0.275   7.326  1.8551 -0.2094 -0.4631
 1429SOL    HW2 5729   0.053   0.171   7.434 -1.7071 -0.2098 -1.0486
 1430SOL     OW 5730   7.012   3.276  11.427 -0.2805 -0.0412  0.4420
 1430SOL    HW1 5731   7.060   3.327  11.492  0.2865  0.0365 -0.0269
 1430SOL    HW2 5732   6.977   3.342  11.366  2.0434 -0.2550 -1.2515
 1431SOL     OW 5733   0.363   3.192  10.058  0.3604 -0.1250  0.3118
 1431SOL    HW1 5734   0.444   3.240  10.045 -0.0869  0.8540  1.0189
 1431SOL    HW2 5735   0.383   3.103  10.028  1.2524  0.4359 -0.8646
 1432SOL     OW 5736   7.490   4.798   2.492  0.2027 -0.9068  0.2123
 1432SOL    HW1 5737   7.524   4.768   2.408  0.9787 -2.4611  1.0296
 1432SOL    HW2 5738   7.438   4.725   2.525 -2.7797  0.8228 -0.2731
 1433SOL     OW 5739   1.843   5.479   7.195 -0.3456  0.2381  0.0202
 1433SOL    HW1 5740   1.886   5.394   7.196  0.9417  0.8511  1.7221
 1433SOL    HW2 5741   1.851   5.511   7.285 -1.1943  1.9671 -0.4711
 1434SOL     OW 5742   5.282   5.341   6.490 -0.0239  0.2930 -0.3644
 1434SOL    HW1 5743   5.224   5.367   6.562 -1.0631 -2.2835 -0.1467
 1434SOL    HW2 5744   5.345   5.281   6.531 -0.3400 -0.8365 -1.4673
 1435SOL     OW 5745   0.540   5.084   4.982  0.1377  0.5758 -0.2625
 1435SOL    HW1 5746   0.521   4.991   4.998 -0.7316  0.5961 -1.0976
 1435SOL    HW2 5747   0.636   5.090   4.986  0.3317 -0.7068 -2.0260
 1436SOL     OW 5748   1.979   5.511   9.130 -0.3542  0.2481  0.3759
 1436SOL    HW1 5749   2.064   5.524   9.172  0.5993  0.7711 -1.5885
 1436SOL    HW2 5750   1.996   5.447   9.061 -1.9349 -0.8401  0.9283
 1437SOL     OW 5751   1.286   0.825   3.914 -0.4603  0.2442  0.0590
 1437SOL    HW1 5752   1.222   0.895   3.925 -1.8416 -0.7730 -1.0746
 1437SOL    HW2 5753   1.265   0.787   3.828  2.9441  1.1341 -1.3377
 1438SOL     OW 5754   1.480   1.548   3.311 -0.4181  0.0734 -0.3610
 1438SOL    HW1 5755   1.485   1.547   3.215 -0.5649 -1.3251 -0.3822
 1438SOL    HW2 5756   1.403   1.495   3.331 -1.0384  1.2671  0.5206
 1439SOL     OW 5757   1.866   3.338   2.505 -0.7189 -0.8067 -0.3585
 1439SOL    HW1 5758   1.935   3.272   2.514 -1.0518 -1.2182 -0.7666
 1439SOL    HW2 5759   1.861   3.355   2.411 -0.4845 -0.0281 -0.2367
 1440SOL     OW 5760   0.067   4.553   7.156 -0.1357 -0.2313  0.2579
 1440SOL    HW1 5761   0.079   4.648   7.162 -0.4347 -0.0898 -1.0008
 1440SOL    HW2 5762   0.092   4.520   7.242  0.0526  0.9796  0.6902
 1441SOL     OW 5763   2.960   5.307  11.769  0.5049  0.1782  0.0294
 1441SOL    HW1 5764   3.002   5.245  11.828 -0.9170 -0.4963  0.3629
 1441SOL    HW2 5765   2.875   5.326  11.810  0.9961  2.5809  0.0974
 1442SOL     OW 5766   7.164   1.398  10.967 -0.2930 -0.2780 -0.2500
 1442SOL    HW1 5767   7.253   1.364  10.968  0.6269  1.8977  1.9146
 1442SOL    HW2 5768   7.110   1.325  10.998  0.7629 -1.4484 -1.0458
 1443SOL     OW 5769   3.894   4.293   4.718  0.0090 -0.1317 -0.3641
 1443SOL    HW1 5770   3.836   4.279   4.792  0.0983 -0.7293 -0.4033
 1443SOL    HW2 5771   3.982   4.281   4.754  0.1771  1.5583 -0.1188
 1444SOL     OW 5772   7.041   5.458   9.594  0.3360 -0.4480  0.1301
 1444SOL    HW1 5773   6.963   5.431   9.642  1.0083 -1.0466  0.9039
 1444SOL    HW2 5774   7.097   5.500   9.660  0.4635  0.4356 -0.5162
 1445SOL     OW 5775   0.632   3.162   0.772  0.3024  0.1724 -0.2027
 1445SOL    HW1 5776   0.644   3.131   0.862  0.9914 -0.9398 -0.6557
 1445SOL    HW2 5777   0.537   3.160   0.759  0.0446  1.9316  1.0094
 1446SOL     OW 5778   0.263   0.148   9.409  0.3128  0.0990  0.5043
 1446SOL    HW1 5779   0.207   0.217   9.375 -1.7443 -0.2274  2.9686
 1446SOL    HW2 5780   0.263   0.161   9.504  3.0700 -0.9820  0.7461
 1447SOL     OW 5781   0.948   3.396   3.094 -0.0802  0.9603 -0.4322
 1447SOL    HW1 5782   0.968   3.384   3.186  1.7234  0.7854 -0.8202
 1447SOL    HW2 5783   0.942   3.306   3.059  3.2252  0.9481 -1.2471
 1448SOL     OW 5784   7.210   3.412   8.839  0.2633  0.0889  0.0998
 1448SOL    HW1 5785   7.214   3.371   8.753  0.7327  0.6129 -0.1301
 1448SOL    HW2 5786   7.207   3.506   8.822 -1.7410  0.1610  0.5883
 1449SOL     OW 5787   7.239   1.026   7.666 -0.1038  0.4913 -0.5376
 1449SOL    HW1 5788   7.283   0.955   7.712 -0.4468  0.0614 -0.8682
 1449SOL    HW2 5789   7.195   1.076   7.735 -0.8604 -0.3147 -0.4119
 1450SOL     OW 5790   1.990   4.583  11.047 -0.1566  0.2892  0.0018
 1450SOL    HW1 5791   1.955   4.625  10.968 -0.3832 -1.0629 -0.6511
 1450SOL    HW2 5792   2.075   4.623  11.060 -0.4114  1.0164 -0.5330
 1451SOL     OW 5793   7.823   5.282   9.101  0.1164  0.2268 -0.0786
 1451SOL    HW1 5794   7.828   5.315   9.190  2.9238  1.1470 -0.4981
 1451SOL    HW2 5795   7.810   5.187   9.112  1.7828  0.1096  1.3901
 1452SOL     OW 5796   7.601   4.438   2.561 -0.1349 -0.3619 -0.1224
 1452SOL    HW1 5797   7.646   4.386   2.495 -1.7473 -2.2243  0.1757
 1452SOL    HW2 5798   7.528   4.478   2.514 -0.6082 -0.7551  0.2670
 1453SOL     OW 5799   4.024   2.630   3.496 -0.2899 -0.1204  0.3881
 1453SOL    HW1 5800   3.974   2.711   3.500  0.3657  0.7528 -4.0834
 1453SOL    HW2 5801   4.115   2.657   3.505 -0.1226 -0.4274 -0.2878
 1454SOL     OW 5802   6.818   7.069   8.915  0.0263 -0.1677 -0.0395
 1454SOL    HW1 5803   6.841   7.027   8.997  0.3473  0.2399  0.0840
 1454SOL    HW2 5804   6.805   6.997   8.853 -0.5872 -0.4895  0.4577
 1455SOL     OW 5805   3.791   7.803   3.844  0.2538  0.2322  0.3917
 1455SOL    HW1 5806   3.755   7.755   3.769  1.6691  2.2700 -1.7416
 1455SOL    HW2 5807   3.877   7.763   3.858  0.6390  0.8591 -0.1341
 1456SOL     OW 5808   4.789   0.087   8.139 -0.3046 -0.9995  0.4301
 1456SOL    HW1 5809   4.769   0.117   8.050 -0.8927  1.1430  1.2390
 1456SOL    HW2 5810   4.854   0.149   8.171 -1.8511 -0.2537  2.3044
 1457SOL     OW 5811   7.239   0.614   5.881 -0.3980  0.0836  0.3270
 1457SOL    HW1 5812   7.254   0.551   5.811 -0.5122 -1.2983  1.5168
 1457SOL    HW2 5813   7.204   0.563   5.954  0.9434  1.2435  1.8794
 1458SOL     OW 5814   1.807   6.503   4.987 -0.1784  0.3272  0.2432
 1458SOL    HW1 5815   1.784   6.518   5.079  1.2185 -2.1220  1.0945
 1458SOL    HW2 5816   1.762   6.421   4.964  1.6891 -0.6141 -0.2943
 1459SOL     OW 5817   0.517   0.841  10.714 -0.3624  0.3900 -0.1465
 1459SOL    HW1 5818   0.558   0.842  10.800  1.4625  1.8444 -0.9673
 1459SOL    HW2 5819   0.555   0.765  10.670 -0.7397  0.0766  0.0613
 1460SOL     OW 5820   4.372   4.015   1.559 -0.2515  0.4515  0.2977
 1460SOL    HW1 5821   4.394   3.922   1.551  0.9790  0.6891  0.7803
 1460SOL    HW2 5822   4.392   4.036   1.650  0.0871  1.3454  0.0204
 1461SOL     OW 5823   2.850   0.582  12.404 -0.6448 -0.0032 -0.2631
 1461SOL    HW1 5824   2.809   0.611  12.322 -1.1735  0.6947  0.2355
 1461SOL    HW2 5825   2.874   0.663  12.449 -1.2151 -0.3446  0.6966
 1462SOL     OW 5826   3.531   7.493   2.763 -0.2015 -0.0338  0.0036
 1462SOL    HW1 5827   3.615   7.465   2.726 -1.1909  0.4682 -2.8805
 1462SOL    HW2 5828   3.482   7.527   2.688 -2.0521  2.0415  2.0032
 1463SOL     OW 5829   6.717   7.562   5.718  0.0860 -0.4843  0.0530
 1463SOL    HW1 5830   6.690   7.612   5.795 -0.1063 -0.1655 -0.2186
 1463SOL    HW2 5831   6.683   7.612   5.644 -0.7838 -1.4158 -0.1991
 1464SOL     OW 5832   6.828   1.781   3.180  0.0395 -0.3944  0.2463
 1464SOL    HW1 5833   6.888   1.726   3.128  0.0873 -1.0266  0.9552
 1464SOL    HW2 5834   6.780   1.719   3.235  1.9047  0.3998  2.9707
 1465SOL     OW 5835   4.322   1.930   1.077 -0.1062  0.3465  0.1026
 1465SOL    HW1 5836   4.286   1.960   0.994  0.1080  1.0200  0.2451
 1465SOL    HW2 5837   4.250   1.941   1.139 -0.6126 -1.1758 -0.1920
 1466SOL     OW 5838   2.006   0.251  11.200  0.0116 -0.2833  0.0195
 1466SOL    HW1 5839   2.071   0.219  11.137  1.6063 -1.1143  1.9882
 1466SOL    HW2 5840   2.051   0.320  11.248 -1.4611  0.9168 -0.2337
 1467SOL     OW 5841   0.101   6.200  10.583  0.6436 -0.0587 -0.1843
 1467SOL    HW1 5842   0.063   6.191  10.671  0.9324 -0.9453 -0.1427
 1467SOL    HW2 5843   0.175   6.140  10.583  1.1034  0.4991 -0.7933
 1468SOL     OW 5844   6.171   1.294   7.382  0.1225 -0.3202  0.9255
 1468SOL    HW1 5845   6.238   1.347   7.339 -0.4988  0.4449  0.8836
 1468SOL    HW2 5846   6.213   1.209   7.396  0.8650 -0.0711  0.2670
 1469SOL     OW 5847   0.798   3.876   1.279 -0.0100 -0.2244  0.1846
 1469SOL    HW1 5848   0.719   3.839   1.242 -0.1042  0.7254 -0.6046
 1469SOL    HW2 5849   0.867   3.815   1.254 -0.3261 -0.4543 -0.1379
 1470SOL     OW 5850   2.569   1.101   0.324 -0.0797  0.0984 -0.1014
 1470SOL    HW1 5851   2.648   1.049   0.311 -0.0987 -0.1182  0.6112
 1470SOL    HW2 5852   2.600   1.192   0.325  0.4650 -0.0569  2.0987
 1471SOL     OW 5853   5.965   1.929   6.394 -0.5556 -0.0239 -0.0563
 1471SOL    HW1 5854   5.962   1.848   6.445  0.0605  0.2994  0.5088
 1471SOL    HW2 5855   5.877   1.936   6.356 -0.8033 -0.6470  0.3765
 1472SOL     OW 5856   4.474   3.814   4.824 -0.1242 -0.6275  0.6711
 1472SOL    HW1 5857   4.379   3.804   4.817 -0.1900 -0.2267  1.0099
 1472SOL    HW2 5858   4.501   3.848   4.739 -0.1915 -1.3961  0.3295
 1473SOL     OW 5859   2.454   1.165   6.515  0.0865 -0.2232  0.5156
 1473SOL    HW1 5860   2.415   1.178   6.428 -0.1819 -0.8013  0.5389
 1473SOL    HW2 5861   2.432   1.244   6.564  2.1186  1.1073 -0.5901
 1474SOL     OW 5862   4.365   6.721   4.385 -0.7066  0.6540  0.1313
 1474SOL    HW1 5863   4.448   6.740   4.430 -0.5136 -0.3662  0.2554
 1474SOL    HW2 5864   4.310   6.681   4.453 -0.4273 -0.8759 -0.4906
 1475SOL     OW 5865   2.529   1.875   6.707 -0.5884 -0.5654 -0.1059
 1475SOL    HW1 5866   2.589   1.840   6.774  0.6941  0.3073 -0.7590
 1475SOL    HW2 5867   2.442   1.863   6.745  0.1322  1.4350  2.5237
 1476SOL     OW 5868   7.388   2.704   4.671  0.6067 -0.2229 -0.2160
 1476SOL    HW1 5869   7.407   2.612   4.650  0.2612 -0.5907  1.0331
 1476SOL    HW2 5870   7.333   2.734   4.598  0.2230 -1.1850 -0.3381
 1477SOL     OW 5871   1.505   1.180   2.628  0.2639  0.3734 -0.2358
 1477SOL    HW1 5872   1.590   1.221   2.646  0.6308  0.8064 -2.6677
 1477SOL    HW2 5873   1.520   1.087   2.646  0.9153  0.5827  0.3939
 1478SOL     OW 5874   3.428   6.083   1.396 -0.2162 -0.0957 -0.3382
 1478SOL    HW1 5875   3.520   6.058   1.385 -0.5626 -0.3805 -3.5083
 1478SOL    HW2 5876   3.421   6.167   1.350 -1.9817 -1.2488 -2.3061
 1479SOL     OW 5877   1.880   3.639   9.932 -0.1713  0.4793 -0.0714
 1479SOL    HW1 5878   1.946   3.626  10.000 -0.1970 -0.6659 -0.2487
 1479SOL    HW2 5879   1.866   3.552   9.896 -1.1622  0.8544 -0.6154
 1480SOL     OW 5880   2.345   6.709   8.252 -0.2234 -0.7437 -0.5020
 1480SOL    HW1 5881   2.303   6.787   8.288 -1.0148 -1.9450  1.3259
 1480SOL    HW2 5882   2.417   6.744   8.200 -0.3739  1.2159  0.4751
 1481SOL     OW 5883   6.086   5.322  12.300 -0.1151  0.0018  0.0290
 1481SOL    HW1 5884   6.051   5.249  12.350  2.8028 -0.3987  1.7362
 1481SOL    HW2 5885   6.144   5.282  12.236  1.5330  0.7164  0.9962
 1482SOL     OW 5886   1.975   4.216   7.253  0.3262 -0.6843  0.1574
 1482SOL    HW1 5887   1.892   4.221   7.301 -0.9619 -1.2664 -1.8837
 1482SOL    HW2 5888   1.956   4.255   7.168  1.8522 -1.8059 -0.7410
 1483SOL     OW 5889   1.615   1.375  10.865 -0.1169 -0.3097  0.1975
 1483SOL    HW1 5890   1.540   1.318  10.881 -0.0428 -0.5580 -0.3082
 1483SOL    HW2 5891   1.682   1.316  10.830 -0.7649  0.4096 -2.4828
 1484SOL     OW 5892   7.863   4.723   4.731 -0.2947  0.2387 -0.0171
 1484SOL    HW1 5893   7.894   4.757   4.815 -0.2450 -0.1208  0.1110
 1484SOL    HW2 5894   7.936   4.739   4.671 -0.6644  1.3035 -0.2038
 1485SOL     OW 5895   1.497   2.475   0.867  0.1544  0.1314  0.1526
 1485SOL    HW1 5896   1.572   2.516   0.910  0.2499  1.3672 -1.1151
 1485SOL    HW2 5897   1.530   2.393   0.831  0.4601 -0.1442  1.0553
 1486SOL     OW 5898   6.184   6.651   7.445  0.3323  0.1208  0.2860
 1486SOL    HW1 5899   6.193   6.746   7.454  0.8479  0.0537  0.5395
 1486SOL    HW2 5900   6.090   6.635   7.453  0.2698  0.5824  0.5279
 1487SOL     OW 5901   6.280   3.747   9.177  0.0264  0.4586  0.0224
 1487SOL    HW1 5902   6.222   3.671   9.170  1.7111 -0.8578 -0.0349
 1487SOL    HW2 5903   6.257   3.802   9.102  0.0983 -0.9371 -1.0522
 1488SOL     OW 5904   2.087   5.584   3.669  0.1860  0.5442 -0.2317
 1488SOL    HW1 5905   2.005   5.627   3.696  0.2089 -0.4282  1.4660
 1488SOL    HW2 5906   2.126   5.553   3.750  0.5319 -2.0722 -1.2973
 1489SOL     OW 5907   6.784   7.102   0.289  0.0656 -0.3926  0.2446
 1489SOL    HW1 5908   6.780   7.075   0.198 -1.6340 -1.9880  0.7430
 1489SOL    HW2 5909   6.695   7.125   0.312  0.7771  1.8426  1.0307
 1490SOL     OW 5910   1.455   0.706   1.682 -0.1419  0.3562 -0.3144
 1490SOL    HW1 5911   1.410   0.656   1.613 -0.1919  0.1503 -0.1337
 1490SOL    HW2 5912   1.547   0.684   1.671 -0.2118 -0.1331  0.0510
 1491SOL     OW 5913   3.249   7.239   3.742 -0.6290  0.0989  0.3313
 1491SOL    HW1 5914   3.343   7.253   3.730 -0.6825  1.1580  1.0211
 1491SOL    HW2 5915   3.243   7.157   3.790 -0.0457  0.1259  0.4621
 1492SOL     OW 5916   7.279   7.633   4.929  0.0992  0.0126  0.6224
 1492SOL    HW1 5917   7.366   7.672   4.938  0.3445 -0.3367 -0.1121
 1492SOL    HW2 5918   7.237   7.684   4.860 -0.1468 -0.0408  0.7325
 1493SOL     OW 5919   2.946   7.260   0.511  1.1008  0.3310 -0.4533
 1493SOL    HW1 5920   2.944   7.165   0.523  1.6620  0.6411  4.2568
 1493SOL    HW2 5921   2.859   7.289   0.538  1.4073  1.2033 -0.3743
 1494SOL     OW 5922   1.302   0.593   8.366 -0.8229 -0.0569 -0.1629
 1494SOL    HW1 5923   1.312   0.672   8.313  0.1455 -0.6807 -0.9471
 1494SOL    HW2 5924   1.353   0.526   8.320 -1.4374 -1.0866  0.6027
 1495SOL     OW 5925   5.345   5.664  11.572 -0.0992 -0.5530 -0.2939
 1495SOL    HW1 5926   5.400   5.676  11.649 -0.0135 -0.9658 -0.2886
 1495SOL    HW2 5927   5.294   5.585  11.590  0.4135 -1.0480 -0.9379
 1496SOL     OW 5928   1.619   5.568   1.166 -0.4710  0.6208  0.0047
 1496SOL    HW1 5929   1.686   5.500   1.158  0.3030  1.2206  1.1744
 1496SOL    HW2 5930   1.537   5.522   1.148  0.2955  0.0840 -2.4621
 1497SOL     OW 5931   3.048   1.976   7.743  0.3793 -0.7329  0.0186
 1497SOL    HW1 5932   3.054   1.968   7.838 -0.4407 -1.8036 -0.0039
 1497SOL    HW2 5933   2.958   2.007   7.727  0.7304  0.1170 -0.3835
 1498SOL     OW 5934   6.827   0.614  11.579  0.0614  0.3550 -0.0891
 1498SOL    HW1 5935   6.782   0.531  11.561  0.2229 -0.2350  1.9079
 1498SOL    HW2 5936   6.803   0.634  11.670 -0.7544  3.0300 -0.8136
 1499SOL     OW 5937   2.920   2.616   0.382 -0.3441  0.4965  0.6022
 1499SOL    HW1 5938   2.978   2.555   0.427 -1.6843 -0.5406  0.9705
 1499SOL    HW2 5939   2.837   2.610   0.429 -1.6797 -0.3065 -1.7037
 1500SOL     OW 5940   7.771   5.071   7.818  0.5178  0.2628 -0.2062
 1500SOL    HW1 5941   7.865   5.086   7.819  0.4927  0.4794 -0.7743
 1500SOL    HW2 5942   7.732   5.159   7.815  0.2743  0.2079  0.8785
 1501SOL     OW 5943   6.964   2.679   9.949  0.3918 -0.0382  0.4017
 1501SOL    HW1 5944   6.983   2.631  10.029  0.6391 -0.1293  0.2920
 1501SOL    HW2 5945   6.998   2.623   9.879 -0.1959 -0.1491  0.2042
 1502SOL     OW 5946   2.505   4.222   1.038  0.4298  0.2595 -0.0913
 1502SOL    HW1 5947   2.580   4.171   1.008  0.4916  0.4496 -0.2644
 1502SOL    HW2 5948   2.505   4.211   1.133  0.0663 -0.5731 -0.1787
 1503SOL     OW 5949   5.195   7.155   7.713 -0.6268 -0.3161  0.3319
 1503SOL    HW1 5950   5.132   7.087   7.690 -1.1353  0.0860  0.5162
 1503SOL    HW2 5951   5.274   7.107   7.738 -0.4197 -0.7999 -1.1265
 1504SOL     OW 5952   7.006   7.114   5.318 -0.0056  0.1738  0.1788
 1504SOL    HW1 5953   7.000   7.066   5.236  1.6028 -1.3302  0.8804
 1504SOL    HW2 5954   7.047   7.198   5.294 -0.1921  0.0388 -0.6434
 1505SOL     OW 5955   5.013   1.088   1.615 -0.3180  0.0353 -0.5092
 1505SOL    HW1 5956   5.016   1.171   1.663  1.6388  0.4699 -1.2887
 1505SOL    HW2 5957   5.087   1.093   1.554 -1.9540 -1.0090 -2.7198
 1506SOL     OW 5958   6.554   5.195   1.510  0.2432 -0.7534  0.0657
 1506SOL    HW1 5959   6.541   5.168   1.601 -1.7680  0.2416  0.1454
 1506SOL    HW2 5960   6.542   5.115   1.459  1.9920 -1.4449  0.6578
 1507SOL     OW 5961   0.822   5.671  10.020 -0.1924  0.0965  0.0721
 1507SOL    HW1 5962   0.849   5.677  10.112 -1.3818  0.0903  0.4398
 1507SOL    HW2 5963   0.731   5.701  10.020  0.5505  2.5968 -1.5326
 1508SOL     OW 5964   5.439   4.419   8.322 -0.1329 -0.1191  0.4456
 1508SOL    HW1 5965   5.462   4.450   8.409 -2.0302 -1.3899  1.4596
 1508SOL    HW2 5966   5.405   4.496   8.277  2.4108  0.9387  0.1757
 1509SOL     OW 5967   5.078   6.749   5.797  0.2772  0.3851  0.1544
 1509SOL    HW1 5968   5.023   6.709   5.730  2.4005 -2.9667  0.1633
 1509SOL    HW2 5969   5.148   6.792   5.747  0.4774  0.1019  0.1906
 1510SOL     OW 5970   6.633   4.681   7.733 -0.3138 -0.1698 -0.0298
 1510SOL    HW1 5971   6.555   4.634   7.762 -0.0581 -0.3231  0.4172
 1510SOL    HW2 5972   6.611   4.774   7.747  0.2006 -0.2711  1.7345
 1511SOL     OW 5973   7.161   3.767   2.701  0.0758  0.1003 -0.0895
 1511SOL    HW1 5974   7.179   3.861   2.691  0.8044  0.2916  2.3334
 1511SOL    HW2 5975   7.113   3.743   2.622  0.8435  2.2571 -1.2840
 1512SOL     OW 5976   2.504   1.690   7.180 -0.4024 -0.0991 -1.1338
 1512SOL    HW1 5977   2.491   1.599   7.152 -0.0466 -0.5666  0.1427
 1512SOL    HW2 5978   2.417   1.729   7.175 -0.9210 -1.0411  0.0488
 1513SOL     OW 5979   4.897   7.237   2.913 -0.0523 -0.0242 -0.3119
 1513SOL    HW1 5980   4.987   7.260   2.937 -0.3005  0.5334  0.1094
 1513SOL    HW2 5981   4.890   7.260   2.821  0.5619 -1.0951 -0.6471
 1514SOL     OW 5982   1.045   2.021  10.685  0.0860 -0.1604  0.0464
 1514SOL    HW1 5983   1.079   1.977  10.763  0.1360 -1.9431 -0.9280
 1514SOL    HW2 5984   1.089   2.106  10.684  0.6011 -0.3786  1.5740
 1515SOL     OW 5985   7.883   4.912   4.245 -0.2028  0.1836 -0.3980
 1515SOL    HW1 5986   7.793   4.936   4.269  0.3749  0.2595  1.9148
 1515SOL    HW2 5987   7.886   4.817   4.257  0.0834  0.2118 -0.2457
 1516SOL     OW 5988   4.482   0.147  11.906 -0.0252  0.5089  0.4731
 1516SOL    HW1 5989   4.528   0.075  11.864  0.0868  0.6489  0.3528
 1516SOL    HW2 5990   4.487   0.219  11.842  0.9471  1.0167  1.0828
 1517SOL     OW 5991   7.232   0.428  12.346  0.3566  0.0170 -0.4841
 1517SOL    HW1 5992   7.221   0.476  12.428  0.2619  0.8452 -0.9669
 1517SOL    HW2 5993   7.267   0.343  12.372  3.5149  1.3716  0.1958
 1518SOL     OW 5994   1.563   3.692   2.834  0.8913 -0.2820  0.2404
 1518SOL    HW1 5995   1.620   3.655   2.901  1.2237  0.0505  0.1415
 1518SOL    HW2 5996   1.552   3.621   2.770  1.6001 -0.1895  0.0064
 1519SOL     OW 5997   5.661   5.255  10.606 -0.1944  0.1160 -0.1286
 1519SOL    HW1 5998   5.756   5.257  10.595  0.0947  1.3976  2.0314
 1519SOL    HW2 5999   5.634   5.174  10.563  2.0244 -0.8902  0.2285
 1520SOL     OW 6000   5.807   4.281  10.128 -0.9686  0.5212 -0.2652
 1520SOL    HW1 6001   5.714   4.271  10.147 -0.7316 -0.0909  0.6386
 1520SOL    HW2 6002   5.849   4.207  10.171  0.3344  2.7187  2.5863
 1521SOL     OW 6003   3.691   5.132   0.908  0.0812  0.0330  0.0220
 1521SOL    HW1 6004   3.669   5.201   0.845 -2.2185  0.2702  0.9879
 1521SOL    HW2 6005   3.713   5.178   0.988 -0.4224 -0.3192  0.3693
 1522SOL     OW 6006   3.382   6.253   6.480  0.1510 -0.1765  0.0967
 1522SOL    HW1 6007   3.444   6.183   6.460 -0.8882 -0.7586 -1.1884
 1522SOL    HW2 6008   3.352   6.284   6.395 -0.2073  1.1228  0.6691
 1523SOL     OW 6009   2.007   6.036   8.503 -0.4476  0.3727  0.4308
 1523SOL    HW1 6010   1.938   6.080   8.554  1.4804  0.6594  3.0420
 1523SOL    HW2 6011   2.089   6.072   8.538  1.1293 -2.3346 -0.1571
 1524SOL     OW 6012   6.178   2.044   7.021  0.4893  0.5087 -0.4874
 1524SOL    HW1 6013   6.230   2.035   7.100  0.0112 -1.3669 -0.3458
 1524SOL    HW2 6014   6.173   2.139   7.006 -0.0854  0.9624  2.1649
 1525SOL     OW 6015   1.778   6.614   5.241  0.0195 -0.5760 -0.1716
 1525SOL    HW1 6016   1.771   6.708   5.258 -0.8976 -0.6166 -0.2249
 1525SOL    HW2 6017   1.862   6.588   5.277  0.6057  0.4030 -0.7998
 1526SOL     OW 6018   3.372   7.790   7.129  0.1268 -0.1725 -0.3175
 1526SOL    HW1 6019   3.378   7.728   7.201 -0.2918  1.1462  0.9061
 1526SOL    HW2 6020   3.345   7.738   7.054 -1.5819 -1.2471  0.9752
 1527SOL     OW 6021   3.118   3.437   9.887 -0.0060 -0.0484 -0.3493
 1527SOL    HW1 6022   3.034   3.459   9.926  0.8926  0.4746  1.3816
 1527SOL    HW2 6023   3.114   3.342   9.875 -0.7594 -0.0567 -0.1114
 1528SOL     OW 6024   6.924   1.223   0.713 -0.0563  0.2448  0.5235
 1528SOL    HW1 6025   7.009   1.263   0.699 -0.4859  1.9028  2.1565
 1528SOL    HW2 6026   6.874   1.290   0.759 -2.1531 -0.7915 -0.1109
 1529SOL     OW 6027   1.935   5.618   6.302  0.2828 -0.1407 -0.5955
 1529SOL    HW1 6028   1.968   5.547   6.357 -0.3339 -0.7919 -1.0494
 1529SOL    HW2 6029   1.922   5.578   6.216  0.5830  0.6927 -1.0407
 1530SOL     OW 6030   5.635   3.992   5.929 -0.0888  0.4920 -0.2531
 1530SOL    HW1 6031   5.649   3.927   5.998 -0.6823 -1.3150 -1.7484
 1530SOL    HW2 6032   5.721   4.005   5.890  0.1805  1.2472  0.5572
 1531SOL     OW 6033   7.688   6.016   5.286 -0.5148  0.7803  0.4909
 1531SOL    HW1 6034   7.769   5.970   5.306 -0.7191  0.0844 -0.2292
 1531SOL    HW2 6035   7.619   5.959   5.319 -0.7503  0.7699 -0.0104
 1532SOL     OW 6036   7.114   5.224   9.494 -0.5177  0.0520 -0.1549
 1532SOL    HW1 6037   7.086   5.312   9.518 -0.8024 -0.3986  1.2487
 1532SOL    HW2 6038   7.146   5.233   9.404  0.7966  1.8918  0.4239
 1533SOL     OW 6039   0.473   0.762   8.967  0.1284 -0.3223 -0.0479
 1533SOL    HW1 6040   0.422   0.689   8.932 -0.8199 -0.0411  0.7198
 1533SOL    HW2 6041   0.430   0.784   9.049  1.9793 -0.5962  1.0496
 1534SOL     OW 6042   3.500   0.393   3.692 -0.0359 -0.0518 -0.0379
 1534SOL    HW1 6043   3.476   0.313   3.644  0.5009 -0.8918  1.0488
 1534SOL    HW2 6044   3.595   0.400   3.681 -0.1781  0.9222 -0.8159
 1535SOL     OW 6045   6.383   1.856   1.132  0.7013  0.0920 -0.1953
 1535SOL    HW1 6046   6.453   1.921   1.127  0.6689  0.1192 -0.2916
 1535SOL    HW2 6047   6.362   1.836   1.041 -1.7935  2.6655 -0.3460
 1536SOL     OW 6048   7.238   0.578   3.993 -0.0482 -0.2942 -0.2488
 1536SOL    HW1 6049   7.183   0.537   3.925  0.7901 -2.6836  0.4145
 1536SOL    HW2 6050   7.308   0.515   4.008  0.4974  0.7560  1.9525
 1537SOL     OW 6051   0.269   0.713   4.832 -0.2541 -0.3128  0.2777
 1537SOL    HW1 6052   0.353   0.672   4.812 -0.7858 -1.0742 -0.4484
 1537SOL    HW2 6053   0.264   0.787   4.772  1.0432  1.3769  2.0905
 1538SOL     OW 6054   3.556   7.475   9.354  0.0107  0.4369  0.1966
 1538SOL    HW1 6055   3.619   7.547   9.357  0.8331 -0.2792  0.6401
 1538SOL    HW2 6056   3.610   7.396   9.352 -0.8754 -0.1846  0.2337
 1539SOL     OW 6057   1.833   7.248   2.421  0.8462 -0.1731 -0.6218
 1539SOL    HW1 6058   1.747   7.218   2.450  0.9571  1.0468  1.1125
 1539SOL    HW2 6059   1.861   7.182   2.357 -1.6287 -0.2702 -1.7241
 1540SOL     OW 6060   7.526   5.352  11.315 -0.5832  0.2606 -0.2512
 1540SOL    HW1 6061   7.548   5.337  11.407  1.4435 -0.4266 -0.7976
 1540SOL    HW2 6062   7.532   5.265  11.275 -0.9057  0.6370 -1.1352
 1541SOL     OW 6063   2.567   1.134   3.038  0.3253 -0.3775 -0.8195
 1541SOL    HW1 6064   2.482   1.176   3.027  0.0735 -0.8951 -0.9200
 1541SOL    HW2 6065   2.631   1.203   3.024 -0.0744 -0.1190 -1.3865
 1542SOL     OW 6066   7.922   6.346   6.215  0.3402 -0.1190  0.2765
 1542SOL    HW1 6067   7.871   6.267   6.201 -0.8475  0.6463  0.1306
 1542SOL    HW2 6068   8.010   6.315   6.238  0.4118 -1.4671 -1.5711
 1543SOL     OW 6069   2.126   7.623   6.684 -0.3692  0.4577 -0.4734
 1543SOL    HW1 6070   2.123   7.609   6.589 -0.8410 -0.8041 -0.3008
 1543SOL    HW2 6071   2.046   7.670   6.705  0.1309  1.4829 -0.7882
 1544SOL     OW 6072   1.967   3.740   6.022  0.2855 -0.1480 -0.3522
 1544SOL    HW1 6073   1.963   3.649   6.052 -1.2370  0.3356  1.0364
 1544SOL    HW2 6074   2.040   3.741   5.959  0.3194 -2.3155 -0.4274
 1545SOL     OW 6075   6.162   1.614   2.864  0.0762  0.5190 -0.9014
 1545SOL    HW1 6076   6.243   1.660   2.884 -0.3479  2.5744 -3.4318
 1545SOL    HW2 6077   6.181   1.565   2.784 -1.0773  0.7791 -1.3545
 1546SOL     OW 6078   5.142   1.000  11.367 -0.1641 -0.1630  0.5996
 1546SOL    HW1 6079   5.057   1.038  11.348 -0.6208 -2.0457 -1.5640
 1546SOL    HW2 6080   5.123   0.921  11.417  0.2803 -0.6489  0.0208
 1547SOL     OW 6081   5.657   5.713   1.885 -0.4426  0.0714  0.1136
 1547SOL    HW1 6082   5.657   5.752   1.798 -1.8457  0.3743  0.2242
 1547SOL    HW2 6083   5.596   5.640   1.879  0.5688 -0.8164  0.4672
 1548SOL     OW 6084   1.142   1.932   1.057 -0.1027  0.0245  0.6653
 1548SOL    HW1 6085   1.055   1.966   1.076  0.3868  0.9746  1.3029
 1548SOL    HW2 6086   1.130   1.876   0.980 -1.4633 -0.7975  1.4396
 1549SOL     OW 6087   1.058   0.356   1.482  0.4191 -0.1418  0.1471
 1549SOL    HW1 6088   1.115   0.327   1.552  1.9588  0.7903 -0.6665
 1549SOL    HW2 6089   0.977   0.381   1.526  0.5574 -1.5886  1.3174
 1550SOL     OW 6090   5.644   3.573  11.535  0.3117  0.2284 -0.7482
 1550SOL    HW1 6091   5.680   3.491  11.500 -0.8301  0.1812 -1.9089
 1550SOL    HW2 6092   5.719   3.619  11.572  0.9118 -1.4957  0.2418
 1551SOL     OW 6093   6.383   6.756   9.644 -0.2597 -0.5900 -0.1140
 1551SOL    HW1 6094   6.390   6.731   9.551  1.4630 -1.3987  0.1818
 1551SOL    HW2 6095   6.413   6.847   9.647 -1.9878  0.0193 -0.5611
 1552SOL     OW 6096   4.012   2.683   0.976 -0.3569  0.6749 -0.0086
 1552SOL    HW1 6097   4.100   2.713   0.995  0.6474 -1.3035 -1.1821
 1552SOL    HW2 6098   3.986   2.632   1.053  1.1893 -2.0499 -1.1486
 1553SOL     OW 6099   6.836   6.583  10.701  0.3385  0.3700  0.6900
 1553SOL    HW1 6100   6.921   6.561  10.738 -0.8436  0.3978  3.7223
 1553SOL    HW2 6101   6.784   6.503  10.711  0.0767  0.2242 -1.4969
 1554SOL     OW 6102   6.506   6.842   0.691 -0.1859 -0.9047  0.8344
 1554SOL    HW1 6103   6.505   6.818   0.784  0.8457  0.7769  1.3195
 1554SOL    HW2 6104   6.572   6.911   0.685  1.1560 -2.2544 -1.4997
 1555SOL     OW 6105   6.494   1.550   5.952  0.1314  0.9101 -0.3005
 1555SOL    HW1 6106   6.431   1.612   5.917 -1.5377 -1.0618 -0.9676
 1555SOL    HW2 6107   6.506   1.486   5.882  1.5335  0.2677  0.4860
 1556SOL     OW 6108   1.436   5.247  11.956  0.4263 -0.1134 -0.1319
 1556SOL    HW1 6109   1.426   5.253  12.051  1.1837  1.8476 -0.1363
 1556SOL    HW2 6110   1.529   5.230  11.942  0.4919  0.5224 -0.5265
 1557SOL     OW 6111   0.430   4.546   8.899  1.0448 -0.4638  0.1324
 1557SOL    HW1 6112   0.488   4.559   8.974 -0.9938  1.5151  1.5033
 1557SOL    HW2 6113   0.433   4.630   8.852  0.9883 -1.1019 -1.0305
 1558SOL     OW 6114   2.291   7.190   9.636 -0.5921  0.4844 -0.0337
 1558SOL    HW1 6115   2.313   7.248   9.564  0.3285 -0.8003 -0.8360
 1558SOL    HW2 6116   2.375   7.170   9.679 -0.6728 -1.2105 -0.5681
 1559SOL     OW 6117   6.909   7.952  12.124 -0.4624  0.0430  0.3581
 1559SOL    HW1 6118   6.990   7.974  12.078 -0.4172  2.3112  1.3489
 1559SOL    HW2 6119   6.844   7.941  12.055  0.6786 -2.0279 -0.4701
 1560SOL     OW 6120   7.798   3.498   9.666 -0.0051  0.1429 -0.3958
 1560SOL    HW1 6121   7.834   3.409   9.674  0.3419  0.2666 -0.5775
 1560SOL    HW2 6122   7.848   3.549   9.730 -0.7791  0.0313  0.3061
 1561SOL     OW 6123   7.117   7.942   4.272  0.4078  0.6927  0.2741
 1561SOL    HW1 6124   7.122   8.024   4.321  0.5898  1.5925 -1.1821
 1561SOL    HW2 6125   7.163   7.960   4.190  1.6244 -1.3002  0.4628
 1562SOL     OW 6126   7.325   3.277   6.124 -0.5405  0.2764  0.0597
 1562SOL    HW1 6127   7.351   3.274   6.032  0.2245  0.2108  0.2731
 1562SOL    HW2 6128   7.229   3.276   6.122 -0.5309  0.5495 -0.7436
 1563SOL     OW 6129   5.633   4.762   1.511 -0.0413  0.3677 -0.1847
 1563SOL    HW1 6130   5.706   4.705   1.535  0.0373 -0.1604 -1.5679
 1563SOL    HW2 6131   5.567   4.746   1.578  0.1687 -1.0199 -0.2753
 1564SOL     OW 6132   6.910   3.126   9.700 -0.1963  0.0429 -0.1735
 1564SOL    HW1 6133   6.884   3.079   9.779 -0.4078 -0.6282 -0.6340
 1564SOL    HW2 6134   6.829   3.161   9.664 -0.2600 -0.6180 -0.6973
 1565SOL     OW 6135   1.200   4.849   2.012 -0.4304  0.0700 -0.1610
 1565SOL    HW1 6136   1.206   4.838   2.107 -1.5053  0.0547 -0.0854
 1565SOL    HW2 6137   1.139   4.921   1.999 -1.7427 -1.1007 -0.8516
 1566SOL     OW 6138   3.355   7.876  10.263  0.5874  0.5989 -0.1010
 1566SOL    HW1 6139   3.286   7.810  10.259  0.8196  0.3452 -0.0267
 1566SOL    HW2 6140   3.316   7.955  10.226  0.4160  0.3166 -0.5371
 1567SOL     OW 6141   1.019   7.919   6.329  0.6157  0.6036 -0.0726
 1567SOL    HW1 6142   1.044   7.830   6.356  0.3200  0.2207 -1.0175
 1567SOL    HW2 6143   1.029   7.971   6.408 -4.0092 -1.1600  2.0653
 1568SOL     OW 6144   1.782   5.799   6.073  0.0354 -0.2117  0.8768
 1568SOL    HW1 6145   1.693   5.801   6.036 -0.3869  0.3796  1.8981
 1568SOL    HW2 6146   1.826   5.729   6.024 -0.8073 -0.1262 -0.0483
 1569SOL     OW 6147   4.075   4.549   6.425 -0.3603 -0.3011 -0.6428
 1569SOL    HW1 6148   4.121   4.495   6.490 -1.8567  0.5386  1.2176
 1569SOL    HW2 6149   4.143   4.574   6.363  1.4507 -0.1254  1.2746
 1570SOL     OW 6150   1.474   7.854   8.127 -0.1193 -0.0484 -0.2098
 1570SOL    HW1 6151   1.411   7.920   8.096  1.0654  0.5925 -1.3528
 1570SOL    HW2 6152   1.499   7.884   8.215  0.5409  1.1650 -0.7828
 1571SOL     OW 6153   3.414   0.485   1.735 -0.1577  0.0300 -0.2650
 1571SOL    HW1 6154   3.509   0.481   1.746  0.1070 -0.6825 -2.3729
 1571SOL    HW2 6155   3.380   0.421   1.797  0.7311  0.2229  0.4470
 1572SOL     OW 6156   3.006   5.377   3.858 -0.1242  0.1274 -0.1316
 1572SOL    HW1 6157   3.087   5.326   3.858  0.0186  0.3364 -1.2513
 1572SOL    HW2 6158   3.029   5.458   3.902  0.8165  0.9791 -2.0888
 1573SOL     OW 6159   7.259   0.494   2.917  0.0531  0.0144  0.0711
 1573SOL    HW1 6160   7.295   0.505   2.829  1.1538 -1.3820  0.3179
 1573SOL    HW2 6161   7.306   0.559   2.970 -1.1132  1.3464 -0.4669
 1574SOL     OW 6162   6.615   2.222  11.653  0.2768 -0.2827 -0.6007
 1574SOL    HW1 6163   6.546   2.254  11.710 -0.7002 -0.4666 -1.6288
 1574SOL    HW2 6164   6.659   2.154  11.704 -0.0702  0.0750  0.1943
 1575SOL     OW 6165   3.064   7.785   6.923  0.2132  0.0406 -0.3827
 1575SOL    HW1 6166   3.152   7.749   6.909  0.6918  1.0945 -0.1486
 1575SOL    HW2 6167   3.040   7.754   7.011  0.4810  0.0222 -0.3139
 1576SOL     OW 6168   4.041   4.273   1.709  0.3534  0.2201  0.6811
 1576SOL    HW1 6169   4.083   4.224   1.639  2.5241 -1.0351  2.6908
 1576SOL    HW2 6170   4.112   4.297   1.768 -1.2568  1.8386  2.1080
 1577SOL     OW 6171   4.345   4.588   4.164 -0.2291  0.2799  0.0395
 1577SOL    HW1 6172   4.403   4.596   4.088  0.6905  0.0808  0.7099
 1577SOL    HW2 6173   4.362   4.666   4.217 -1.8382  1.1078 -0.5827
 1578SOL     OW 6174   0.435   0.250  11.767 -0.3193 -0.2582  0.5406
 1578SOL    HW1 6175   0.372   0.178  11.765 -2.0761  1.2047 -1.0009
 1578SOL    HW2 6176   0.403   0.309  11.835 -1.0575  0.8271 -0.7133
 1579SOL     OW 6177   6.087   1.443   9.652 -0.0712 -0.9835  0.1491
 1579SOL    HW1 6178   6.137   1.446   9.733  1.3554 -0.3538 -0.7105
 1579SOL    HW2 6179   5.996   1.444   9.679  0.3198  2.0110  1.6773
 1580SOL     OW 6180   2.239   2.640   5.192  0.8104  0.1142 -0.0513
 1580SOL    HW1 6181   2.289   2.630   5.273  1.4347 -0.3312 -0.4753
 1580SOL    HW2 6182   2.291   2.593   5.126  0.1727  0.2272 -0.6502
 1581SOL     OW 6183   1.349   2.679   9.983  0.0210  0.5954 -0.1394
 1581SOL    HW1 6184   1.353   2.687   9.888  0.7391 -0.2605 -0.1930
 1581SOL    HW2 6185   1.394   2.597  10.002  1.7987  1.7897  1.0971
 1582SOL     OW 6186   3.976   4.482   8.936 -0.1562  0.0970 -0.0857
 1582SOL    HW1 6187   4.018   4.396   8.932  0.1623  0.2281  0.2916
 1582SOL    HW2 6188   3.885   4.466   8.911  0.0448 -0.2464 -0.6104
 1583SOL     OW 6189   5.285   7.465   3.859  0.1901  0.6984 -0.5031
 1583SOL    HW1 6190   5.302   7.416   3.778 -0.1500  0.0891 -0.2155
 1583SOL    HW2 6191   5.369   7.507   3.879  0.1981  1.1094 -1.3320
 1584SOL     OW 6192   3.376   2.500   8.544 -0.1195  0.4126 -0.7157
 1584SOL    HW1 6193   3.394   2.449   8.464 -2.1107 -0.3731 -0.7073
 1584SOL    HW2 6194   3.315   2.568   8.516 -0.5563  0.3482  0.0667
 1585SOL     OW 6195   5.686   7.686   0.386  0.6457  0.3408  0.1075
 1585SOL    HW1 6196   5.719   7.676   0.475  2.7286  1.1425 -0.5161
 1585SOL    HW2 6197   5.762   7.711   0.334 -0.5883  0.3281 -1.8418
 1586SOL     OW 6198   3.286   2.435   7.814  0.2415 -0.1863  0.9464
 1586SOL    HW1 6199   3.242   2.407   7.734  2.7214  0.4754 -0.7593
 1586SOL    HW2 6200   3.224   2.496   7.854 -0.7954  0.0491 -0.8745
 1587SOL     OW 6201   0.919   7.468   9.308  0.4611  0.5307  0.7914
 1587SOL    HW1 6202   0.960   7.523   9.241 -1.8307  1.4944  0.0882
 1587SOL    HW2 6203   0.939   7.512   9.391  1.5155  0.4916  0.5775
 1588SOL     OW 6204   2.997   3.705  10.728 -0.1426 -0.3524 -0.2309
 1588SOL    HW1 6205   2.969   3.700  10.636  1.4921 -1.5821 -0.6962
 1588SOL    HW2 6206   2.919   3.680  10.778 -1.4773  1.6359 -1.1637
 1589SOL     OW 6207   2.768   3.542   1.003 -1.2359 -0.3691 -0.2208
 1589SOL    HW1 6208   2.839   3.606   1.003 -2.4499  1.1421 -2.6279
 1589SOL    HW2 6209   2.809   3.461   0.973 -0.3421  0.2854 -0.8362
 1590SOL     OW 6210   0.485   1.121  10.871 -0.0365  0.3519 -0.4428
 1590SOL    HW1 6211   0.434   1.199  10.890 -0.2092 -0.1450  1.3294
 1590SOL    HW2 6212   0.419   1.051  10.863  0.0730  0.4131 -2.4886
 1591SOL     OW 6213   0.265   4.862   1.335  0.8384  0.1808  0.2014
 1591SOL    HW1 6214   0.302   4.944   1.367 -1.0046  0.6926  1.1126
 1591SOL    HW2 6215   0.267   4.803   1.410  2.4982 -0.7684 -0.5489
 1592SOL     OW 6216   4.873   6.880   4.262  0.0152  0.0896  0.3495
 1592SOL    HW1 6217   4.796   6.918   4.304 -0.2120  1.6260 -1.3345
 1592SOL    HW2 6218   4.841   6.800   4.220 -0.6658  0.6666 -0.2507
 1593SOL     OW 6219   6.408   3.818  10.358  0.3516 -0.0889  0.2088
 1593SOL    HW1 6220   6.480   3.756  10.348  0.2465 -0.0487 -1.0597
 1593SOL    HW2 6221   6.447   3.904  10.342  0.0277 -0.0761 -0.5886
 1594SOL     OW 6222   2.421   4.118  12.165 -0.8244 -0.7039  0.6261
 1594SOL    HW1 6223   2.408   4.028  12.195 -0.4763 -0.7047  0.7752
 1594SOL    HW2 6224   2.379   4.172  12.233  0.2389 -0.6912  1.2877
 1595SOL     OW 6225   4.241   0.385   9.537  0.3664  0.1854  0.2191
 1595SOL    HW1 6226   4.328   0.368   9.502  0.4138  0.9252 -0.0416
 1595SOL    HW2 6227   4.242   0.478   9.559 -1.3817  1.0751 -2.8533
 1596SOL     OW 6228   5.292   5.538  10.459 -0.5369  0.4216  0.1925
 1596SOL    HW1 6229   5.278   5.537  10.365  0.4813  1.8549  0.0026
 1596SOL    HW2 6230   5.318   5.448  10.480 -0.0413  0.2711 -1.0001
 1597SOL     OW 6231   7.059   2.208  11.144  0.2071  0.5078  0.0681
 1597SOL    HW1 6232   7.138   2.155  11.136 -0.9217 -1.1996 -0.1769
 1597SOL    HW2 6233   7.002   2.178  11.073 -0.3130  2.3879 -0.3690
 1598SOL     OW 6234   4.681   7.583   0.529  0.0766  0.6011 -0.3179
 1598SOL    HW1 6235   4.676   7.494   0.565 -2.9785  1.0509  0.7337
 1598SOL    HW2 6236   4.624   7.581   0.452 -0.5951  1.7742  0.1238
 1599SOL     OW 6237   2.325   5.868   0.046  0.3859 -0.1491  0.2893
 1599SOL    HW1 6238   2.250   5.822   0.084  0.4838  0.1552  0.8564
 1599SOL    HW2 6239   2.297   5.959   0.039  0.1943 -0.2851 -0.8351
 1600SOL     OW 6240   6.228   0.506   1.995  1.0468 -0.4983  0.2984
 1600SOL    HW1 6241   6.162   0.438   1.985 -0.7457  1.0190  1.2454
 1600SOL    HW2 6242   6.271   0.511   1.910 -1.1383 -0.4709 -0.8749
 1601SOL     OW 6243   1.650   4.844  12.240 -0.2295 -0.5589  0.2692
 1601SOL    HW1 6244   1.737   4.885  12.247  0.3054 -1.6906  0.4052
 1601SOL    HW2 6245   1.608   4.863  12.324 -0.6347  1.1100 -0.2743
 1602SOL     OW 6246   7.550   5.912   0.263  0.9544  0.6262 -0.2696
 1602SOL    HW1 6247   7.542   5.935   0.355 -0.9598  1.3799 -0.5793
 1602SOL    HW2 6248   7.460   5.908   0.231  1.5155 -0.7501 -1.8526
 1603SOL     OW 6249   4.216   5.006  11.467 -0.1359 -0.5794  0.1001
 1603SOL    HW1 6250   4.185   5.069  11.533 -0.7875 -0.2816 -0.4737
 1603SOL    HW2 6251   4.163   5.025  11.390  0.0279 -1.4955 -0.2467
 1604SOL     OW 6252   1.287   1.170   4.587 -0.0012  0.2841 -0.0040
 1604SOL    HW1 6253   1.193   1.156   4.577  0.4566 -1.3383 -4.2087
 1604SOL    HW2 6254   1.320   1.085   4.617  0.3029  0.2155 -0.5274
 1605SOL     OW 6255   2.915   5.435   1.571  0.3749 -0.1216 -0.0871
 1605SOL    HW1 6256   2.982   5.366   1.571  1.2668  0.6713  1.6715
 1605SOL    HW2 6257   2.963   5.514   1.549 -0.0085  0.4318  1.0118
 1606SOL     OW 6258   6.330   1.110   5.023  0.4392  0.1068 -0.0182
 1606SOL    HW1 6259   6.296   1.043   5.083  0.3582 -0.2456 -0.4521
 1606SOL    HW2 6260   6.404   1.148   5.069 -1.0682  1.5234  1.3546
 1607SOL     OW 6261   4.593   4.961   5.234 -0.3831  0.7140  0.0170
 1607SOL    HW1 6262   4.571   5.038   5.181  1.5118  1.2591 -0.0605
 1607SOL    HW2 6263   4.629   4.898   5.171 -1.1885  0.0474  0.2016
 1608SOL     OW 6264   0.289   3.766   7.384  0.6459  0.1186  0.0040
 1608SOL    HW1 6265   0.254   3.684   7.349  0.8325  0.1840 -0.3353
 1608SOL    HW2 6266   0.226   3.792   7.452 -0.2297  0.5001 -0.9327
 1609SOL     OW 6267   4.958   0.238  10.395 -0.2146  0.3128 -0.2097
 1609SOL    HW1 6268   4.960   0.329  10.425 -1.1601  0.4757 -0.6025
 1609SOL    HW2 6269   5.033   0.197  10.438 -1.7916  0.3648  2.8692
 1610SOL     OW 6270   2.173   0.360   0.926 -0.0309  0.3510  0.0865
 1610SOL    HW1 6271   2.152   0.272   0.894 -2.0325  0.6025  0.5453
 1610SOL    HW2 6272   2.196   0.347   1.018  0.1152  0.2679  0.0395
 1611SOL     OW 6273   2.900   1.785   8.648 -0.7380  0.2163 -0.0248
 1611SOL    HW1 6274   2.875   1.877   8.645  0.2591  0.4676 -0.9560
 1611SOL    HW2 6275   2.994   1.784   8.634 -0.7236 -0.9480 -0.0090
 1612SOL     OW 6276   5.787   0.576   4.654  0.1895 -0.4254 -0.2257
 1612SOL    HW1 6277   5.795   0.642   4.585 -0.0923  0.1154  0.2431
 1612SOL    HW2 6278   5.704   0.533   4.636 -0.9574  1.1482  0.9511
 1613SOL     OW 6279   2.807   3.629   5.647  0.4812 -0.5348 -0.7256
 1613SOL    HW1 6280   2.750   3.552   5.642 -1.4295  0.7070  0.7334
 1613SOL    HW2 6281   2.878   3.602   5.705  0.1855 -1.3940 -0.7438
 1614SOL     OW 6282   1.573   4.229   9.939 -0.2311  0.0879 -0.3501
 1614SOL    HW1 6283   1.613   4.194   9.859 -0.7739  0.6403 -0.8880
 1614SOL    HW2 6284   1.498   4.172   9.956  0.8679 -1.0595  0.7654
 1615SOL     OW 6285   0.904   0.708   8.618  0.3359  0.1800 -0.3882
 1615SOL    HW1 6286   0.985   0.714   8.567  0.8599 -1.0236  0.2636
 1615SOL    HW2 6287   0.916   0.770   8.690  1.2486 -0.9193  0.4355
 1616SOL     OW 6288   4.711   4.900  10.868 -0.1277 -0.1645  1.0412
 1616SOL    HW1 6289   4.785   4.895  10.807 -0.9861 -1.0418  0.0356
 1616SOL    HW2 6290   4.675   4.811  10.870 -0.1835 -0.1408  2.7856
 1617SOL     OW 6291   3.956   7.237   8.481  0.2847 -0.3114 -0.6681
 1617SOL    HW1 6292   4.008   7.189   8.417  0.2559 -0.4400 -0.5947
 1617SOL    HW2 6293   3.979   7.198   8.565 -0.5653 -0.9516 -0.7230
 1618SOL     OW 6294   3.493   1.772   9.469  0.2324  0.3828  0.1046
 1618SOL    HW1 6295   3.459   1.828   9.400 -1.2948  1.7822  1.9013
 1618SOL    HW2 6296   3.521   1.832   9.538  2.6162 -0.9170  0.4052
 1619SOL     OW 6297   4.733   3.880   7.509 -0.0322  0.2335  0.1211
 1619SOL    HW1 6298   4.826   3.868   7.527  0.1430  0.8089 -0.3768
 1619SOL    HW2 6299   4.712   3.966   7.546 -0.2133  0.3883 -0.3371
 1620SOL     OW 6300   2.551   0.579  10.118  0.2157  0.8018  0.3012
 1620SOL    HW1 6301   2.619   0.636  10.082  2.9613 -1.1707  1.9513
 1620SOL    HW2 6302   2.564   0.495  10.074 -0.7842  0.2134  1.0782
 1621SOL     OW 6303   0.904   4.301   4.602 -0.0133  0.2665  0.0602
 1621SOL    HW1 6304   0.961   4.308   4.525 -0.1382  0.6012 -0.0012
 1621SOL    HW2 6305   0.952   4.347   4.671  0.0641  0.0304  0.1662
 1622SOL     OW 6306   3.406   0.952  10.193  0.6822  0.0826 -0.0213
 1622SOL    HW1 6307   3.354   0.909  10.261  0.1931  1.7649  0.7187
 1622SOL    HW2 6308   3.483   0.985  10.240  1.5423 -0.8153 -0.7643
 1623SOL     OW 6309   4.521   7.572   5.133  0.3376 -0.2218  0.4231
 1623SOL    HW1 6310   4.553   7.507   5.070  0.8713 -0.4919  0.9740
 1623SOL    HW2 6311   4.580   7.566   5.207  1.6258  2.2576 -0.2847
 1624SOL     OW 6312   0.861   2.409  11.573  0.2980  0.2529  0.0297
 1624SOL    HW1 6313   0.815   2.416  11.656  0.7200 -1.1064  0.4059
 1624SOL    HW2 6314   0.941   2.362  11.594  1.8494  2.4224 -0.6221
 1625SOL     OW 6315   4.167   6.280  10.871  0.0599  0.2049 -0.3793
 1625SOL    HW1 6316   4.118   6.335  10.931  0.6249  0.1945  0.0978
 1625SOL    HW2 6317   4.258   6.292  10.897  0.2403 -0.4334 -0.7083
 1626SOL     OW 6318   7.814   5.939   3.833  0.4841 -0.2487  0.0405
 1626SOL    HW1 6319   7.780   5.989   3.759  0.1580 -0.1645  0.2483
 1626SOL    HW2 6320   7.842   6.006   3.896 -2.1526 -0.2575  1.3665
 1627SOL     OW 6321   1.075   2.521   3.992  0.4774 -0.0661 -0.3118
 1627SOL    HW1 6322   1.145   2.504   4.055  1.5608 -0.3642 -1.5509
 1627SOL    HW2 6323   1.044   2.435   3.966 -0.6202  0.0592  0.4573
 1628SOL     OW 6324   6.441   7.284  11.313  0.6489  0.2939  0.2347
 1628SOL    HW1 6325   6.357   7.298  11.269  0.2826 -0.1134  0.7909
 1628SOL    HW2 6326   6.457   7.365  11.362  0.5635  0.3604  0.1518
 1629SOL     OW 6327   3.612   1.900   0.063  0.1472  0.3486  0.7229
 1629SOL    HW1 6328   3.645   1.816   0.097  1.3828  1.2891  1.9609
 1629SOL    HW2 6329   3.545   1.926   0.125  0.2274  0.5914  0.7068
 1630SOL     OW 6330   0.488   3.095   7.690  0.2506  0.2310 -0.2488
 1630SOL    HW1 6331   0.463   3.184   7.713  2.0882  0.8992 -0.6353
 1630SOL    HW2 6332   0.433   3.039   7.745 -0.5070  1.6086  0.4395
 1631SOL     OW 6333   1.628   6.434  12.224 -0.2341  0.6265 -0.6041
 1631SOL    HW1 6334   1.659   6.436  12.314 -0.3855  2.4171 -0.5571
 1631SOL    HW2 6335   1.533   6.449  12.231 -0.2329  0.8653 -1.0640
 1632SOL     OW 6336   6.571   6.532   3.825 -0.3225 -0.8986  0.9044
 1632SOL    HW1 6337   6.576   6.625   3.846 -1.2182 -0.8230  0.8127
 1632SOL    HW2 6338   6.478   6.514   3.815 -0.1109 -1.6255  0.0940
 1633SOL     OW 6339   2.058   1.791   5.433 -0.0756 -0.7770 -0.1147
 1633SOL    HW1 6340   1.979   1.780   5.380 -0.7962  3.1807 -0.1127
 1633SOL    HW2 6341   2.043   1.735   5.509 -2.5996 -0.6216 -0.4256
 1634SOL     OW 6342   7.149   0.146   0.476  0.9840 -0.3995 -0.0197
 1634SOL    HW1 6343   7.179   0.146   0.567  1.6485 -0.7090 -0.2330
 1634SOL    HW2 6344   7.229   0.161   0.425  0.5349  0.3113 -0.5309
 1635SOL     OW 6345   4.379   1.418   2.017  0.3361 -0.4201 -0.3907
 1635SOL    HW1 6346   4.372   1.475   2.093  0.5006 -2.8227  1.5801
 1635SOL    HW2 6347   4.290   1.383   2.006  0.8298 -2.0125  0.3873
 1636SOL     OW 6348   5.214   2.987   7.793 -0.3016 -0.1062  0.0817
 1636SOL    HW1 6349   5.247   2.966   7.706 -0.9365  0.8656 -0.4167
 1636SOL    HW2 6350   5.193   3.081   7.789  1.3092  0.4041  1.8259
 1637SOL     OW 6351   0.537   7.120   8.625  0.3820  0.6143 -0.3268
 1637SOL    HW1 6352   0.498   7.051   8.571  2.0484 -2.0819  1.6431
 1637SOL    HW2 6353   0.510   7.202   8.583 -0.3712 -1.2147 -3.7891
 1638SOL     OW 6354   2.404   0.267   5.761  0.7788  0.1482 -0.5333
 1638SOL    HW1 6355   2.406   0.295   5.852 -0.5390 -0.3838 -0.3290
 1638SOL    HW2 6356   2.476   0.204   5.754  0.8298  0.1278  0.1486
 1639SOL     OW 6357   0.592   2.141   7.307 -0.3025  0.1313 -0.1661
 1639SOL    HW1 6358   0.679   2.128   7.343 -0.1367  1.0341 -0.2288
 1639SOL    HW2 6359   0.586   2.235   7.290 -0.4133 -0.2409 -2.4276
 1640SOL     OW 6360   5.196   0.225   4.228  0.2277  0.3984 -0.0286
 1640SOL    HW1 6361   5.278   0.192   4.190 -0.6766 -1.3870 -0.5443
 1640SOL    HW2 6362   5.180   0.169   4.304 -1.1627 -0.1652 -0.6962
 1641SOL     OW 6363   7.340   7.542   4.547 -0.0677  0.2026  0.0703
 1641SOL    HW1 6364   7.320   7.457   4.508 -0.9077  0.6131 -0.4491
 1641SOL    HW2 6365   7.261   7.565   4.596 -0.1022  0.9499 -0.3113
 1642SOL     OW 6366   1.272   0.259   8.563  0.0949  0.9226  0.2962
 1642SOL    HW1 6367   1.186   0.218   8.562  0.2881  0.5017  0.6629
 1642SOL    HW2 6368   1.314   0.228   8.482  0.3403  0.1682  0.7060
 1643SOL     OW 6369   1.455   3.957   2.854  0.2070  0.5370  0.0037
 1643SOL    HW1 6370   1.491   3.986   2.937 -1.1350  1.1494  0.4035
 1643SOL    HW2 6371   1.473   3.863   2.851  1.6177  0.7791  0.2574
 1644SOL     OW 6372   5.224   2.703   1.518 -0.4812  0.2214  0.4084
 1644SOL    HW1 6373   5.204   2.765   1.588 -2.4826  1.4077 -1.1075
 1644SOL    HW2 6374   5.279   2.752   1.457 -3.2543  1.1600 -1.5308
 1645SOL     OW 6375   1.650   2.544   7.851  0.1923  0.7082  0.3389
 1645SOL    HW1 6376   1.663   2.630   7.813 -0.4256  0.5668 -0.2082
 1645SOL    HW2 6377   1.689   2.483   7.788 -0.4837  0.5046  0.1033
 1646SOL     OW 6378   5.791   2.609   8.112  0.3107 -0.1186 -0.2567
 1646SOL    HW1 6379   5.810   2.571   8.026  3.1198 -0.9596  0.6237
 1646SOL    HW2 6380   5.872   2.598   8.162 -1.5161 -0.6396  2.8846
 1647SOL     OW 6381   6.575   3.929   6.362 -0.7255  0.8014 -0.3406
 1647SOL    HW1 6382   6.599   3.881   6.283  1.0303 -1.0007  1.1969
 1647SOL    HW2 6383   6.630   4.007   6.360 -0.4866  0.6287 -0.7525
 1648SOL     OW 6384   1.545   6.185   5.848  0.2331 -0.1543 -0.1089
 1648SOL    HW1 6385   1.525   6.278   5.836  0.9774  0.2426  1.4116
 1648SOL    HW2 6386   1.461   6.141   5.838 -0.3228  0.8119  0.1568
 1649SOL     OW 6387   5.021   5.512   5.890  0.2907 -0.1587  0.1544
 1649SOL    HW1 6388   4.957   5.578   5.866 -0.8210 -0.6805  1.5192
 1649SOL    HW2 6389   5.053   5.540   5.976 -1.6468 -2.3073  1.7188
 1650SOL     OW 6390   4.816   5.979   0.841 -0.0383  0.1076 -0.4984
 1650SOL    HW1 6391   4.900   5.977   0.795 -0.0684 -1.9060 -0.5485
 1650SOL    HW2 6392   4.757   5.927   0.786 -0.7118 -0.3808  0.6452
 1651SOL     OW 6393   1.549   5.181   4.815 -0.8136 -0.2695 -0.1426
 1651SOL    HW1 6394   1.568   5.274   4.829  0.0820 -0.0006 -2.5432
 1651SOL    HW2 6395   1.590   5.162   4.731 -0.7304 -2.9349  0.4256
 1652SOL     OW 6396   3.662   7.516   6.209  0.2593  0.2801  0.3089
 1652SOL    HW1 6397   3.741   7.547   6.164 -0.1649  0.6985 -0.1502
 1652SOL    HW2 6398   3.608   7.594   6.220  1.7494  1.0120  4.6272
 1653SOL     OW 6399   6.921   7.906   1.303  0.4127  0.1358  0.0170
 1653SOL    HW1 6400   6.992   7.967   1.321 -0.0656  0.9737 -0.8822
 1653SOL    HW2 6401   6.965   7.827   1.271  1.0064  0.1547  0.7758
 1654SOL     OW 6402   4.950   6.074   4.092 -0.0699  0.3421 -0.0252
 1654SOL    HW1 6403   4.867   6.043   4.127  0.3757 -0.7623  0.0920
 1654SOL    HW2 6404   4.931   6.093   4.000 -0.1073 -1.4202 -0.4203
 1655SOL     OW 6405   0.271   1.162   4.713  0.0528 -0.0292 -0.5094
 1655SOL    HW1 6406   0.275   1.143   4.807 -0.5148  3.1454  0.2567
 1655SOL    HW2 6407   0.361   1.153   4.683  0.7574  1.5441  0.9698
 1656SOL     OW 6408   1.506   2.725   1.478 -0.2459 -0.0900  0.5111
 1656SOL    HW1 6409   1.436   2.768   1.527  0.0668  0.7329  0.2530
 1656SOL    HW2 6410   1.464   2.696   1.396 -0.2671  0.5096  0.3025
 1657SOL     OW 6411   5.653   4.466   7.970  0.1280 -0.3969  0.0034
 1657SOL    HW1 6412   5.649   4.529   7.898  0.8161 -0.2798  0.0608
 1657SOL    HW2 6413   5.640   4.519   8.048 -0.4218 -0.4950 -0.0206
 1658SOL     OW 6414   6.860   6.457   5.704  0.2065  0.0512  0.1309
 1658SOL    HW1 6415   6.917   6.397   5.752 -0.8035  0.6247  2.1858
 1658SOL    HW2 6416   6.813   6.504   5.772 -0.4677  1.7928 -1.4564
 1659SOL     OW 6417   3.656   1.053   5.366  0.3473  0.2392  1.0265
 1659SOL    HW1 6418   3.576   1.000   5.358  0.6609  0.0683 -2.1427
 1659SOL    HW2 6419   3.717   0.998   5.415  0.5399 -2.3515 -1.8289
 1660SOL     OW 6420   2.433   2.023   6.044 -0.2097  0.1180  0.1050
 1660SOL    HW1 6421   2.508   1.985   5.998  0.0481 -0.1419  0.7426
 1660SOL    HW2 6422   2.375   2.052   5.973 -0.5325 -1.6763 -0.4076
 1661SOL     OW 6423   3.189   1.119  11.784 -0.4966  0.2350 -0.0967
 1661SOL    HW1 6424   3.227   1.064  11.852 -1.3646  0.4224  0.5617
 1661SOL    HW2 6425   3.247   1.109  11.709  0.7753  0.4369  0.8350
 1662SOL     OW 6426   7.171   0.770   9.310  0.8409  0.4698 -0.2071
 1662SOL    HW1 6427   7.116   0.799   9.238  1.9613 -1.2662 -1.8639
 1662SOL    HW2 6428   7.178   0.846   9.367 -0.0854  1.9289 -1.9421
 1663SOL     OW 6429   3.237   4.621   5.212  0.4297  0.2751  0.2850
 1663SOL    HW1 6430   3.198   4.573   5.286  0.1117  0.4070  0.2069
 1663SOL    HW2 6431   3.311   4.668   5.250  0.5204  0.0070  0.4357
 1664SOL     OW 6432   7.002   5.698   7.377  0.3126 -0.1137  0.0214
 1664SOL    HW1 6433   6.997   5.610   7.415 -3.3180 -0.6039 -1.2127
 1664SOL    HW2 6434   7.054   5.686   7.297 -0.2189 -1.2007 -0.1797
 1665SOL     OW 6435   0.964   6.124   1.669 -0.0599  0.4193 -0.0702
 1665SOL    HW1 6436   1.055   6.106   1.649 -0.4556  0.2333 -1.8461
 1665SOL    HW2 6437   0.928   6.039   1.695  0.2483  0.4912  0.6219
 1666SOL     OW 6438   5.568   5.470  12.298 -0.1602  0.1244  0.3862
 1666SOL    HW1 6439   5.518   5.402  12.342 -0.0700 -0.3028 -0.1691
 1666SOL    HW2 6440   5.559   5.451  12.205 -0.4966  1.1241  0.1965
 1667SOL     OW 6441   0.652   7.288   1.381  0.0997 -0.3715 -0.6131
 1667SOL    HW1 6442   0.567   7.269   1.419  0.2971 -2.0589 -0.9599
 1667SOL    HW2 6443   0.672   7.213   1.326  1.7820  0.0101 -0.5929
 1668SOL     OW 6444   5.687   6.193   2.233 -0.3777  0.2952  0.9139
 1668SOL    HW1 6445   5.601   6.219   2.199 -0.1566 -0.2077 -0.0773
 1668SOL    HW2 6446   5.725   6.138   2.164  0.5346  0.0912  1.5498
 1669SOL     OW 6447   3.137   3.739   9.893 -0.0008  0.7576 -0.6454
 1669SOL    HW1 6448   3.161   3.678   9.963  0.5345 -0.5970 -1.9509
 1669SOL    HW2 6449   3.219   3.781   9.868 -0.3839  2.1548  0.3192
 1670SOL     OW 6450   5.103   7.734   4.176  0.4425  0.5063  0.1542
 1670SOL    HW1 6451   5.171   7.731   4.243  2.6035  1.2071 -1.8609
 1670SOL    HW2 6452   5.103   7.646   4.138 -1.2254 -0.0859  1.3935
 1671SOL     OW 6453   2.893   5.254   1.172  0.2730  0.5510  0.7701
 1671SOL    HW1 6454   2.943   5.178   1.202  0.2646  0.2231 -0.0265
 1671SOL    HW2 6455   2.917   5.263   1.079 -1.9928 -0.3043  0.0476
 1672SOL     OW 6456   7.962   2.649   3.835 -0.0322  0.2807 -0.0768
 1672SOL    HW1 6457   7.976   2.740   3.808 -1.3941  0.7884  0.8140
 1672SOL    HW2 6458   7.877   2.626   3.798  0.0458 -0.4372  0.1835
 1673SOL     OW 6459   3.300   1.438  11.852  0.1871 -0.4016 -0.0727
 1673SOL    HW1 6460   3.331   1.371  11.913 -0.3994 -0.7056 -0.0924
 1673SOL    HW2 6461   3.206   1.420  11.843  0.2710 -0.4018 -1.1109
 1674SOL     OW 6462   1.335   0.929   9.403 -0.3355  0.2549  0.3127
 1674SOL    HW1 6463   1.422   0.907   9.438  0.3068  1.2477 -0.5988
 1674SOL    HW2 6464   1.296   0.983   9.471  0.2473  0.7951  0.2324
 1675SOL     OW 6465   7.031   6.413  10.046  0.1907  0.1092  0.6403
 1675SOL    HW1 6466   7.077   6.363  10.113  1.7436 -0.9052 -1.0923
 1675SOL    HW2 6467   7.022   6.353   9.972 -2.0718  0.9641  0.1245
 1676SOL     OW 6468   0.038   4.322   4.490  0.1824 -0.1885 -0.0778
 1676SOL    HW1 6469   0.086   4.253   4.536  1.1840  0.7710  0.3646
 1676SOL    HW2 6470   0.072   4.320   4.400 -2.0601 -2.3307 -1.0053
 1677SOL     OW 6471   5.126   6.701   8.790 -0.0922 -0.3812 -0.1833
 1677SOL    HW1 6472   5.144   6.779   8.738 -1.9279  0.1056 -0.1792
 1677SOL    HW2 6473   5.123   6.629   8.726  0.9660 -0.3532 -0.2732
 1678SOL     OW 6474   5.062   0.039   5.147  0.6558  0.2083 -0.5587
 1678SOL    HW1 6475   5.059   0.133   5.131 -2.5564  0.0132 -1.7601
 1678SOL    HW2 6476   5.086   0.031   5.239 -2.3244  2.4146  0.5594
 1679SOL     OW 6477   1.920   7.406   5.169  0.0330 -0.3042 -0.7749
 1679SOL    HW1 6478   1.948   7.315   5.166  0.1780 -0.2741 -0.4400
 1679SOL    HW2 6479   1.892   7.419   5.260  1.8360  0.5189 -0.2814
 1680SOL     OW 6480   0.820   3.742   7.111 -0.0486 -0.3107  0.0844
 1680SOL    HW1 6481   0.846   3.798   7.185  2.8268 -1.2328 -0.0924
 1680SOL    HW2 6482   0.892   3.680   7.102 -1.7835 -2.2421 -1.5603
 1681SOL     OW 6483   2.839   0.429   9.121  0.1700  0.3596 -0.0364
 1681SOL    HW1 6484   2.751   0.430   9.086 -0.0062 -1.2396  0.2961
 1681SOL    HW2 6485   2.849   0.515   9.163  0.0610  1.9622 -3.0099
 1682SOL     OW 6486   5.238   0.758   0.209  0.0803  0.6916  0.2802
 1682SOL    HW1 6487   5.231   0.853   0.202 -0.8008  0.6735  0.8550
 1682SOL    HW2 6488   5.150   0.729   0.232  0.3345 -0.2717  0.0618
 1683SOL     OW 6489   6.215   6.927   5.682  0.4297  0.1278 -0.3059
 1683SOL    HW1 6490   6.236   6.833   5.684  0.1869  0.0886  0.3435
 1683SOL    HW2 6491   6.270   6.965   5.750  0.6099  0.4794 -0.6440
 1684SOL     OW 6492   7.089   6.967   8.504 -0.7637  0.4298 -0.3029
 1684SOL    HW1 6493   7.010   6.915   8.486  0.3914 -1.7273  0.4448
 1684SOL    HW2 6494   7.120   6.935   8.589  0.8029  1.3816 -0.4725
 1685SOL     OW 6495   4.476   2.275   8.950 -0.4084  0.2695 -0.0214
 1685SOL    HW1 6496   4.480   2.277   8.854  0.8897 -1.2837 -0.0395
 1685SOL    HW2 6497   4.529   2.350   8.977 -1.0674  0.9238 -0.5132
 1686SOL     OW 6498   5.096   6.666   4.033 -0.1035 -0.2332  0.2138
 1686SOL    HW1 6499   5.120   6.597   4.095 -2.0913 -1.6780 -0.4990
 1686SOL    HW2 6500   5.047   6.620   3.964 -0.4783  1.7297 -0.9088
 1687SOL     OW 6501   5.092   7.827   3.863 -0.1671  0.8591  0.4534
 1687SOL    HW1 6502   5.136   7.891   3.808  0.4273 -0.4482 -0.6657
 1687SOL    HW2 6503   5.068   7.875   3.942  0.6577  2.3257 -0.1510
 1688SOL     OW 6504   6.633   6.094   4.835 -0.1510 -0.6735  0.1423
 1688SOL    HW1 6505   6.621   6.003   4.806  2.7294 -1.1640  0.2174
 1688SOL    HW2 6506   6.648   6.087   4.929 -0.4456 -0.0606  0.2339
 1689SOL     OW 6507   2.713   5.136   0.042 -0.2750 -0.1290  0.0819
 1689SOL    HW1 6508   2.792   5.084   0.055  0.4220  1.2769  1.8419
 1689SOL    HW2 6509   2.725   5.176  -0.044  1.3994  0.7689  0.6879
 1690SOL     OW 6510   0.260   0.967   5.664 -0.0952 -0.3607 -0.1649
 1690SOL    HW1 6511   0.218   0.883   5.684  1.0383 -0.8051  0.4225
 1690SOL    HW2 6512   0.212   1.031   5.716 -1.5411 -0.4751 -1.2752
 1691SOL     OW 6513   7.665   4.632   5.036  0.0104 -0.4140  0.2529
 1691SOL    HW1 6514   7.662   4.726   5.022  0.5406 -0.3298  0.6480
 1691SOL    HW2 6515   7.758   4.613   5.049 -0.2225 -0.7652  1.6131
 1692SOL     OW 6516   4.147   0.991   9.199 -0.6597  0.0351 -0.4118
 1692SOL    HW1 6517   4.054   0.984   9.179 -0.5964 -1.7367 -0.2491
 1692SOL    HW2 6518   4.185   0.909   9.167  0.4220 -0.3508  1.6499
 1693SOL     OW 6519   5.295   6.199   4.325 -0.0731  0.2747  0.4225
 1693SOL    HW1 6520   5.376   6.180   4.372 -0.5637 -1.1011  0.7648
 1693SOL    HW2 6521   5.310   6.163   4.238 -0.0670  0.6432  0.2705
 1694SOL     OW 6522   4.563   7.697  10.538  0.0239  0.2269 -0.1190
 1694SOL    HW1 6523   4.541   7.736  10.623 -0.2940 -2.4052  1.1166
 1694SOL    HW2 6524   4.646   7.652  10.554 -0.7207 -1.4579 -0.7673
 1695SOL     OW 6525   7.847   7.963   4.551 -0.5050  0.7492  0.0491
 1695SOL    HW1 6526   7.837   8.048   4.510  0.3690  1.0437  0.4128
 1695SOL    HW2 6527   7.775   7.910   4.517  0.0283  1.0643 -1.6242
 1696SOL     OW 6528   3.303   7.547   9.821 -0.1922 -0.2506  0.0485
 1696SOL    HW1 6529   3.250   7.574   9.745 -1.8905  0.0465  1.2731
 1696SOL    HW2 6530   3.382   7.508   9.783 -1.2324 -0.6047 -1.8770
 1697SOL     OW 6531   3.535   1.293   3.977  0.1925 -0.4196  0.0126
 1697SOL    HW1 6532   3.507   1.201   3.980 -0.8966 -0.0854  1.0390
 1697SOL    HW2 6533   3.623   1.293   4.013  0.3798 -1.1182 -0.4333
 1698SOL     OW 6534   4.016   3.850   5.411  0.3765  0.2673  0.0950
 1698SOL    HW1 6535   3.994   3.757   5.405 -0.4134  0.4907 -0.6360
 1698SOL    HW2 6536   3.942   3.895   5.371  1.0191  1.1868 -0.0947
 1699SOL     OW 6537   4.231   0.202   3.924 -0.5759  0.3140  0.2538
 1699SOL    HW1 6538   4.297   0.143   3.961 -0.2681  1.2033  1.1919
 1699SOL    HW2 6539   4.282   0.266   3.875 -0.9223 -0.3033 -0.9441
 1700SOL     OW 6540   5.327   1.846  10.745 -0.2128 -0.0022 -0.2230
 1700SOL    HW1 6541   5.278   1.867  10.665 -0.7591  0.3731  0.2080
 1700SOL    HW2 6542   5.266   1.793  10.797  0.4807 -1.0801 -0.4680
 1701SOL     OW 6543   1.001   7.337   1.740 -0.3662  0.3586  0.3377
 1701SOL    HW1 6544   1.081   7.377   1.775 -0.3015  0.3840  0.1650
 1701SOL    HW2 6545   0.974   7.397   1.670 -0.8204  0.6152  0.7332
 1702SOL     OW 6546   2.570   6.834  11.125  0.0112 -0.2777  0.2425
 1702SOL    HW1 6547   2.518   6.815  11.204 -0.4034  0.0443  0.0553
 1702SOL    HW2 6548   2.566   6.754  11.074 -0.4462 -0.2056  0.1572
 1703SOL     OW 6549   1.801   4.562   4.971  0.0961 -0.0683 -0.2112
 1703SOL    HW1 6550   1.746   4.539   4.897 -0.8640  2.1907 -0.2823
 1703SOL    HW2 6551   1.876   4.606   4.932  0.9847 -1.2966  0.0333
 1704SOL     OW 6552   3.435   3.422  10.919  0.9311  0.0937 -0.3798
 1704SOL    HW1 6553   3.388   3.379  10.847  1.4500  2.4002 -2.2568
 1704SOL    HW2 6554   3.375   3.490  10.948  0.4546 -1.2307  1.9492
 1705SOL     OW 6555   3.964   1.624  11.487  0.5233 -0.0879 -0.1733
 1705SOL    HW1 6556   4.009   1.541  11.503 -0.3995 -0.4140  0.8976
 1705SOL    HW2 6557   3.880   1.614  11.533 -0.2652  0.8309 -1.3696
 1706SOL     OW 6558   2.549   1.662   3.587 -0.0670  0.0750  0.1414
 1706SOL    HW1 6559   2.536   1.756   3.572 -0.5058 -0.1789 -1.2576
 1706SOL    HW2 6560   2.621   1.657   3.650  1.0643  1.3273 -0.9875
 1707SOL     OW 6561   6.078   1.767   3.581  0.2423  0.2383 -0.6410
 1707SOL    HW1 6562   6.036   1.840   3.535  1.3671  1.1292 -0.2792
 1707SOL    HW2 6563   6.132   1.725   3.514 -1.2962 -1.0334 -1.1600
 1708SOL     OW 6564   2.075   0.729  12.104 -0.6141  0.5060 -1.0653
 1708SOL    HW1 6565   2.041   0.640  12.114 -0.7914  0.6178 -0.6683
 1708SOL    HW2 6566   2.153   0.732  12.160 -0.3173  0.4471 -1.4725
 1709SOL     OW 6567   3.868   0.138   4.337 -0.2035  0.0380  0.2836
 1709SOL    HW1 6568   3.858   0.047   4.310  1.7503  0.2958 -1.5626
 1709SOL    HW2 6569   3.851   0.189   4.258 -5.6206  1.7841  2.0661
 1710SOL     OW 6570   4.132   6.969   9.411  0.1367 -0.1399 -0.3080
 1710SOL    HW1 6571   4.189   6.950   9.336 -1.0749 -1.4117 -0.9531
 1710SOL    HW2 6572   4.044   6.945   9.381 -0.4443 -0.2596  1.3855
 1711SOL     OW 6573   1.897   2.632   6.929 -0.5839  0.2137  0.0691
 1711SOL    HW1 6574   1.942   2.552   6.956 -4.1623 -2.0395  0.0588
 1711SOL    HW2 6575   1.895   2.687   7.007  2.9358  0.9648 -0.2247
 1712SOL     OW 6576   0.528   1.751   1.353 -0.2388  0.3334 -0.5861
 1712SOL    HW1 6577   0.439   1.718   1.345 -0.3112  0.1708  0.6306
 1712SOL    HW2 6578   0.522   1.821   1.417  0.5808 -0.0239 -0.0907
 1713SOL     OW 6579   1.972   5.067   1.251  0.0812 -0.2758 -0.2667
 1713SOL    HW1 6580   1.995   5.018   1.330  1.2455  0.1431 -0.3222
 1713SOL    HW2 6581   1.876   5.069   1.251 -0.0089 -2.4310 -0.2197
 1714SOL     OW 6582   6.719   1.632   7.492 -0.0659 -0.6116  0.1269
 1714SOL    HW1 6583   6.793   1.657   7.436  0.6786  0.1889  1.4145
 1714SOL    HW2 6584   6.750   1.650   7.581 -1.7035 -0.6028  0.7165
 1715SOL     OW 6585   0.470   6.140   6.290  0.0217  0.2051 -0.1120
 1715SOL    HW1 6586   0.550   6.163   6.242  0.1949 -0.9907 -0.4281
 1715SOL    HW2 6587   0.473   6.194   6.369  0.6336  0.8986 -0.5883
 1716SOL     OW 6588   1.604   6.111   7.641  0.2106 -0.6122  0.0980
 1716SOL    HW1 6589   1.524   6.114   7.693 -0.6314 -1.3370 -1.1000
 1716SOL    HW2 6590   1.670   6.076   7.701 -0.6483 -1.1032  0.7825
 1717SOL     OW 6591   2.808   4.600   9.722 -0.5688 -0.2212  0.4287
 1717SOL    HW1 6592   2.815   4.695   9.737 -0.7972 -0.0532 -0.4792
 1717SOL    HW2 6593   2.888   4.564   9.760 -1.2773  0.1150  2.3934
 1718SOL     OW 6594   2.187   1.717   7.913  0.2934  0.6408  0.1186
 1718SOL    HW1 6595   2.280   1.723   7.890  0.7122  0.8341  1.7296
 1718SOL    HW2 6596   2.187   1.678   8.000 -1.1579  0.5864  0.1114
 1719SOL     OW 6597   4.328   7.647  10.110 -0.9445  0.3029 -0.1531
 1719SOL    HW1 6598   4.413   7.618  10.077 -0.3384 -1.7448  2.7281
 1719SOL    HW2 6599   4.342   7.738  10.136  0.5273 -0.1018  0.5952
 1720SOL     OW 6600   1.932   4.174   7.586  0.0587 -0.6156  0.0366
 1720SOL    HW1 6601   1.954   4.082   7.571  0.8965 -0.6014  1.0611
 1720SOL    HW2 6602   1.891   4.202   7.504 -0.2529 -1.9035 -0.2805
 1721SOL     OW 6603   3.967   6.665   1.898 -0.1918 -0.1342  0.9414
 1721SOL    HW1 6604   4.020   6.722   1.954 -1.5475  0.3560  1.7582
 1721SOL    HW2 6605   3.943   6.592   1.955  0.1066 -0.6782  0.3882
 1722SOL     OW 6606   3.837   1.598   1.552 -0.0980 -0.1814 -0.7980
 1722SOL    HW1 6607   3.832   1.654   1.629  0.7302  0.6542 -1.3317
 1722SOL    HW2 6608   3.786   1.520   1.575 -1.7566  1.0075 -0.2301
 1723SOL     OW 6609   6.123   5.902   0.440 -0.5875 -0.1449 -0.0549
 1723SOL    HW1 6610   6.213   5.917   0.469 -0.5453 -0.0110 -0.2514
 1723SOL    HW2 6611   6.112   5.962   0.365 -1.5046  1.3758  1.2311
 1724SOL     OW 6612   2.075   6.909   6.329  0.2958  0.5855  0.6680
 1724SOL    HW1 6613   2.105   6.999   6.323 -0.0230  0.5946 -2.0924
 1724SOL    HW2 6614   1.980   6.916   6.335  0.2445  0.4371  0.0676
 1725SOL     OW 6615   3.676   7.143   8.672  0.0699 -0.0061 -0.4073
 1725SOL    HW1 6616   3.691   7.134   8.766 -0.6522 -0.3384 -0.3126
 1725SOL    HW2 6617   3.695   7.234   8.653  0.1894  0.0698  0.0721
 1726SOL     OW 6618   7.889   2.842   3.051 -0.5432  0.2974  0.2154
 1726SOL    HW1 6619   7.896   2.835   3.146  0.9592 -0.3729  0.0846
 1726SOL    HW2 6620   7.811   2.897   3.036  0.9684  3.1259  1.9110
 1727SOL     OW 6621   6.370   4.638   8.107 -0.2419 -0.2745  0.0851
 1727SOL    HW1 6622   6.458   4.626   8.144 -0.3794 -2.3189 -0.1769
 1727SOL    HW2 6623   6.321   4.561   8.136 -1.5980  0.2130 -0.8332
 1728SOL     OW 6624   4.085   5.395   1.785  0.4324 -0.5619 -0.6166
 1728SOL    HW1 6625   4.103   5.301   1.780  0.9875 -0.4131 -1.6778
 1728SOL    HW2 6626   4.016   5.410   1.719  0.0129 -0.2934 -0.1253
 1729SOL     OW 6627   5.478   1.389  10.309 -0.0786 -0.0756 -0.2385
 1729SOL    HW1 6628   5.532   1.395  10.230 -1.3580  2.0080 -1.0122
 1729SOL    HW2 6629   5.446   1.478  10.324 -3.6010 -1.1934 -0.0757
 1730SOL     OW 6630   0.703   0.319  11.896  0.3074 -0.3288 -0.0447
 1730SOL    HW1 6631   0.634   0.319  11.829  0.8736 -0.4052 -0.6284
 1730SOL    HW2 6632   0.733   0.228  11.900 -1.2100 -0.8314  1.8819
 1731SOL     OW 6633   0.165   1.710  11.959 -0.0452 -0.5649 -0.0301
 1731SOL    HW1 6634   0.125   1.793  11.987 -1.3826 -0.9836 -0.5969
 1731SOL    HW2 6635   0.203   1.674  12.038  0.9899  0.8137  0.1389
 1732SOL     OW 6636   6.530   0.640   3.623 -0.1311  0.1597 -0.3708
 1732SOL    HW1 6637   6.598   0.579   3.653  0.3761  1.2440  0.7844
 1732SOL    HW2 6638   6.450   0.609   3.664  0.3645  0.9869  1.3173
 1733SOL     OW 6639   5.487   3.874   5.729  0.0244 -0.2855  0.2159
 1733SOL    HW1 6640   5.461   3.952   5.681  0.5793  0.3260  0.8804
 1733SOL    HW2 6641   5.511   3.907   5.816 -2.0971 -1.4959  1.3137
 1734SOL     OW 6642   2.964   2.938   7.654 -0.2407 -0.3406  0.2365
 1734SOL    HW1 6643   2.989   2.859   7.702 -1.0096 -1.1788 -0.7211
 1734SOL    HW2 6644   2.869   2.944   7.666 -0.5096 -0.7674 -1.4527
 1735SOL     OW 6645   3.148   1.649   2.440 -0.4254 -0.3826 -0.3889
 1735SOL    HW1 6646   3.139   1.563   2.399  2.4633 -0.9419 -0.0277
 1735SOL    HW2 6647   3.112   1.637   2.528 -1.3104 -0.8044 -0.7899
 1736SOL     OW 6648   6.315   3.228   0.014  0.1399  0.5802 -0.7631
 1736SOL    HW1 6649   6.233   3.273  -0.006 -0.2127  1.1832  1.7121
 1736SOL    HW2 6650   6.379   3.298   0.026  0.6454  0.1872 -1.0844
 1737SOL     OW 6651   1.802   0.690   0.304 -0.4697  0.2952  0.8453
 1737SOL    HW1 6652   1.731   0.636   0.268  0.9777 -0.7049 -0.7079
 1737SOL    HW2 6653   1.821   0.754   0.235  2.1653 -1.4646 -0.2383
 1738SOL     OW 6654   0.789   7.125   9.917 -0.0834 -0.3669 -0.0679
 1738SOL    HW1 6655   0.853   7.122   9.988 -1.7773  0.8935  1.5998
 1738SOL    HW2 6656   0.807   7.207   9.872 -0.5325 -0.0009  0.4162
 1739SOL     OW 6657   5.131   1.979   1.722 -0.2273 -0.1824  0.3261
 1739SOL    HW1 6658   5.217   1.947   1.750  1.2416  5.0253  3.1660
 1739SOL    HW2 6659   5.146   2.012   1.633  0.3673 -0.4513  0.3231
 1740SOL     OW 6660   6.571   1.392   7.515  0.3126  0.4514  0.5114
 1740SOL    HW1 6661   6.643   1.453   7.499  0.1700  1.1906  2.4554
 1740SOL    HW2 6662   6.499   1.425   7.462  1.2447 -0.1035 -1.1949
 1741SOL     OW 6663   7.846   7.041   3.945 -0.3648 -0.0598  0.3641
 1741SOL    HW1 6664   7.845   7.013   3.854  0.1460  0.4119  0.2070
 1741SOL    HW2 6665   7.802   7.126   3.944  0.8977  0.6110  0.3186
 1742SOL     OW 6666   3.166   4.160  10.481 -0.5783 -0.1872  0.1774
 1742SOL    HW1 6667   3.187   4.235  10.425 -2.7039  0.0757 -0.3577
 1742SOL    HW2 6668   3.131   4.198  10.561 -3.5793 -0.4988 -0.8685
 1743SOL     OW 6669   7.749   1.214   5.808  0.6670  0.6444 -0.8358
 1743SOL    HW1 6670   7.695   1.226   5.730  1.2907  0.6485 -1.2804
 1743SOL    HW2 6671   7.689   1.182   5.875  0.2643 -0.0884 -1.5287
 1744SOL     OW 6672   7.294   6.398   7.685 -0.3059 -0.1436  0.1458
 1744SOL    HW1 6673   7.204   6.378   7.711 -0.6394  1.8598  0.6694
 1744SOL    HW2 6674   7.294   6.390   7.590 -1.0357 -0.1625  0.1402
 1745SOL     OW 6675   4.661   6.795   2.410 -0.9365 -0.2541 -0.1120
 1745SOL    HW1 6676   4.666   6.874   2.356 -1.3486  0.9737  1.5808
 1745SOL    HW2 6677   4.573   6.762   2.396 -2.1509  1.7680  1.9858
 1746SOL     OW 6678   4.673   0.957   8.862 -0.2744 -0.2973  0.1831
 1746SOL    HW1 6679   4.715   1.025   8.916  0.1556 -0.9872  0.7387
 1746SOL    HW2 6680   4.632   0.898   8.926  1.1012 -1.6928 -0.1622
 1747SOL     OW 6681   7.730   3.345   8.470  0.0151  0.2444  0.3266
 1747SOL    HW1 6682   7.639   3.316   8.463  0.0607 -0.1090  1.1361
 1747SOL    HW2 6683   7.740   3.371   8.561  0.8260 -0.0728  0.3342
 1748SOL     OW 6684   5.555   6.297  10.983 -0.0328  0.3070 -0.2658
 1748SOL    HW1 6685   5.630   6.328  10.932 -0.2887 -0.4467 -1.1209
 1748SOL    HW2 6686   5.509   6.376  11.009 -0.3947  0.6891 -1.9681
 1749SOL     OW 6687   7.392   1.339   9.999 -0.6355 -0.2518  0.6046
 1749SOL    HW1 6688   7.308   1.370   9.963 -0.0099  0.1841 -0.5455
 1749SOL    HW2 6689   7.438   1.419  10.024 -0.5102 -0.4867  1.1429
 1750SOL     OW 6690   6.959   3.479   7.409  0.4185  0.3374  0.6864
 1750SOL    HW1 6691   6.871   3.461   7.442  0.9596 -0.3361  1.8251
 1750SOL    HW2 6692   6.952   3.467   7.315 -1.2655  2.6430  0.4294
 1751SOL     OW 6693   2.070   0.976  10.881 -0.5900 -0.0353  0.1015
 1751SOL    HW1 6694   2.024   0.900  10.845  0.8338 -1.0038  0.2760
 1751SOL    HW2 6695   2.114   1.015  10.805 -0.2820 -0.1257  0.2356
 1752SOL     OW 6696   6.695   2.007   5.845  0.1376 -0.0559  0.0339
 1752SOL    HW1 6697   6.728   2.080   5.794  1.9123 -0.2209  0.8332
 1752SOL    HW2 6698   6.713   1.930   5.791  0.9930 -0.1341  0.4143
 1753SOL     OW 6699   7.091   5.386  11.671 -0.9218 -0.7042 -0.3723
 1753SOL    HW1 6700   7.110   5.314  11.610 -1.8043 -0.5422 -0.8458
 1753SOL    HW2 6701   7.171   5.439  11.670  0.4560 -2.5908  1.3315
 1754SOL     OW 6702   3.580   2.217   4.978  0.3641 -0.1915  0.3988
 1754SOL    HW1 6703   3.594   2.122   4.973 -0.0582 -0.3343  1.5901
 1754SOL    HW2 6704   3.485   2.227   4.983  0.3740  0.3424 -0.3440
 1755SOL     OW 6705   0.522   3.784   9.960 -0.2395 -0.2184  0.0132
 1755SOL    HW1 6706   0.572   3.785  10.041  1.2810  1.5870 -0.8637
 1755SOL    HW2 6707   0.527   3.693   9.930 -0.1006 -0.7184  1.4734
 1756SOL     OW 6708   1.505   5.458   8.735  0.1111 -0.6070 -0.0978
 1756SOL    HW1 6709   1.451   5.386   8.768 -1.7195  0.6812 -0.0946
 1756SOL    HW2 6710   1.453   5.536   8.753  2.8473  0.9848  1.6735
 1757SOL     OW 6711   1.204   5.720   2.292  0.0063  0.1967 -0.2307
 1757SOL    HW1 6712   1.195   5.681   2.205 -1.1301  1.0546 -0.5271
 1757SOL    HW2 6713   1.114   5.739   2.319  0.3445  0.0428  1.0978
 1758SOL     OW 6714   7.064   5.173   8.423  0.0092 -0.1699  0.2112
 1758SOL    HW1 6715   7.114   5.192   8.343  0.0475 -2.5441 -0.4175
 1758SOL    HW2 6716   7.012   5.252   8.438  1.5677  1.1519 -0.9376
 1759SOL     OW 6717   3.218   2.507   0.958  0.0519  0.7865  0.1980
 1759SOL    HW1 6718   3.144   2.536   0.905  0.4310 -0.6721 -1.1815
 1759SOL    HW2 6719   3.196   2.418   0.984  1.2273  0.4092 -0.0549
 1760SOL     OW 6720   2.452   7.763   2.161 -0.0621  0.1063  0.6920
 1760SOL    HW1 6721   2.419   7.721   2.082 -0.7764 -0.8313  1.4748
 1760SOL    HW2 6722   2.528   7.813   2.131 -0.1445 -0.4646 -0.5333
 1761SOL     OW 6723   4.214   3.749  10.965 -0.6314  0.4391  0.0272
 1761SOL    HW1 6724   4.118   3.745  10.967 -0.6109 -2.9144  1.0469
 1761SOL    HW2 6725   4.237   3.810  11.035 -1.9959  1.1520 -0.1077
 1762SOL     OW 6726   4.861   6.009  11.467  0.1187 -0.5308 -0.5047
 1762SOL    HW1 6727   4.931   6.041  11.523  0.0676 -0.8386 -0.2650
 1762SOL    HW2 6728   4.897   5.930  11.426  0.4381  0.1167 -1.5047
 1763SOL     OW 6729   3.306   5.250   2.696  0.0756  0.2540  0.2249
 1763SOL    HW1 6730   3.239   5.281   2.634 -0.7211 -1.6755  0.0589
 1763SOL    HW2 6731   3.261   5.252   2.781  1.0809  2.6360  0.7952
 1764SOL     OW 6732   6.876   2.695   6.469  0.4915  0.1573 -0.5614
 1764SOL    HW1 6733   6.816   2.634   6.513 -1.6848  2.1013 -0.6435
 1764SOL    HW2 6734   6.825   2.775   6.458  3.0904  1.8870 -0.8475
 1765SOL     OW 6735   6.805   3.165   7.569  0.0032  0.5315 -0.2056
 1765SOL    HW1 6736   6.764   3.086   7.534 -0.8147  1.6404 -1.8768
 1765SOL    HW2 6737   6.897   3.142   7.579 -0.5482 -1.2975  1.4768
 1766SOL     OW 6738   6.913   0.749   2.273  0.5017  0.2838  0.1910
 1766SOL    HW1 6739   6.855   0.796   2.213  0.9207  0.7886  0.1742
 1766SOL    HW2 6740   6.854   0.715   2.340 -0.0736 -0.9356 -0.8976
 1767SOL     OW 6741   7.848   5.806   3.377  0.2156  0.1596  0.0686
 1767SOL    HW1 6742   7.776   5.791   3.315  1.3223  1.1724 -1.5608
 1767SOL    HW2 6743   7.899   5.876   3.337  0.6686  1.3062  2.4766
 1768SOL     OW 6744   4.029   6.251   8.613 -0.3133  0.7247  0.2301
 1768SOL    HW1 6745   4.000   6.160   8.604  0.4763  0.5203 -0.3470
 1768SOL    HW2 6746   4.064   6.256   8.702 -0.4633  0.4931  0.3027
 1769SOL     OW 6747   7.452   4.511   1.884 -0.8878 -0.2754 -0.6671
 1769SOL    HW1 6748   7.500   4.527   1.802  1.1507 -0.4365  0.4362
 1769SOL    HW2 6749   7.483   4.425   1.913 -2.1602 -0.5536 -0.0811
 1770SOL     OW 6750   3.982   4.293   3.848  0.5956  0.3417 -0.5826
 1770SOL    HW1 6751   4.061   4.297   3.794  1.3426 -0.9044  0.3722
 1770SOL    HW2 6752   3.973   4.381   3.884  2.8546 -0.0086  1.0676
 1771SOL     OW 6753   7.162   2.938   6.137  0.5306  0.5201 -0.6128
 1771SOL    HW1 6754   7.162   2.846   6.164  0.2524  0.0382 -2.1659
 1771SOL    HW2 6755   7.069   2.962   6.136  0.6340  1.0084  0.3436
 1772SOL     OW 6756   0.779   7.328   7.654 -0.1437  0.2786  0.6240
 1772SOL    HW1 6757   0.842   7.262   7.626 -0.7410 -0.9625  2.0792
 1772SOL    HW2 6758   0.832   7.401   7.686  0.5308  1.0356 -2.0315
 1773SOL     OW 6759   4.366   5.449   8.945 -0.7319  0.7440 -0.3521
 1773SOL    HW1 6760   4.341   5.359   8.923 -2.3151  0.5828  1.7392
 1773SOL    HW2 6761   4.389   5.489   8.861  0.7172 -1.7780 -1.2631
 1774SOL     OW 6762   0.703   0.675  10.174  0.2825  0.7189 -0.9618
 1774SOL    HW1 6763   0.780   0.732  10.167  0.6987  0.7471  2.2883
 1774SOL    HW2 6764   0.739   0.589  10.193 -0.4455  0.7803  0.8336
 1775SOL     OW 6765   6.928   4.816  10.646  0.5035 -0.3383  0.1138
 1775SOL    HW1 6766   6.919   4.810  10.742  3.5949 -1.0127  0.4647
 1775SOL    HW2 6767   6.913   4.726  10.616 -2.7611  0.2506 -0.4245
 1776SOL     OW 6768   0.441   2.388   6.572  1.2957 -0.2231  0.4449
 1776SOL    HW1 6769   0.507   2.408   6.639  2.0448  0.9479 -0.5849
 1776SOL    HW2 6770   0.489   2.341   6.505  0.1679 -3.0048  1.4653
 1777SOL     OW 6771   2.043   7.128   2.848 -0.2478 -0.2772  0.5695
 1777SOL    HW1 6772   2.130   7.163   2.870 -0.5515 -0.7451  2.7675
 1777SOL    HW2 6773   2.058   7.074   2.770  1.3185  0.0818  0.5822
 1778SOL     OW 6774   1.123   5.253  11.419  0.6042 -0.7899 -0.1674
 1778SOL    HW1 6775   1.057   5.190  11.390  1.5697 -2.4512  1.0301
 1778SOL    HW2 6776   1.078   5.307  11.484  0.1377 -1.2140 -0.1346
 1779SOL     OW 6777   4.591   1.945   8.132 -0.0158 -0.0342 -0.2192
 1779SOL    HW1 6778   4.652   1.994   8.187  1.1922  0.0681 -1.5718
 1779SOL    HW2 6779   4.509   1.945   8.180  1.0989 -0.3659  1.7813
 1780SOL     OW 6780   7.859   7.331   1.933 -0.3346  0.1654 -0.5447
 1780SOL    HW1 6781   7.773   7.373   1.926 -0.6004 -0.1841  0.4031
 1780SOL    HW2 6782   7.854   7.281   2.015  2.0011  2.9798  1.5152
 1781SOL     OW 6783   4.310   6.593   7.568 -0.5307  0.2133  0.2202
 1781SOL    HW1 6784   4.285   6.503   7.547 -1.9524  0.8351 -0.9849
 1781SOL    HW2 6785   4.388   6.610   7.515 -0.7869 -0.0375 -0.2438
 1782SOL     OW 6786   7.422   4.852   9.032 -0.6318 -0.2362  0.2340
 1782SOL    HW1 6787   7.383   4.858   8.944 -1.3266 -0.0592  0.5471
 1782SOL    HW2 6788   7.370   4.913   9.085 -0.1260 -0.2370  0.7381
 1783SOL     OW 6789   2.493   6.516   1.398 -0.0428 -0.0446 -0.3067
 1783SOL    HW1 6790   2.574   6.520   1.450  0.6070 -0.7085 -1.2249
 1783SOL    HW2 6791   2.423   6.510   1.462  0.5903  1.1222  0.5288
 1784SOL     OW 6792   6.610   0.167   4.946  0.4491  0.5820  0.2138
 1784SOL    HW1 6793   6.671   0.192   4.876  0.3825 -1.2608 -0.5505
 1784SOL    HW2 6794   6.527   0.206   4.920 -0.0574 -1.6182 -1.8269
 1785SOL     OW 6795   4.755   4.529   8.042 -0.3640  0.4643  0.0935
 1785SOL    HW1 6796   4.745   4.478   7.962  0.1007  0.3333  0.1187
 1785SOL    HW2 6797   4.836   4.579   8.029  0.9602 -1.2355  1.3947
 1786SOL     OW 6798   4.490   0.330   9.474  0.0782  0.0389  0.4648
 1786SOL    HW1 6799   4.537   0.291   9.400  0.1653 -0.0276  0.5550
 1786SOL    HW2 6800   4.558   0.352   9.537  0.0770  0.8431  0.1867
 1787SOL     OW 6801   3.601   6.873   0.700  0.2048  0.4500  0.3116
 1787SOL    HW1 6802   3.632   6.916   0.779  2.1534 -0.5096  0.1291
 1787SOL    HW2 6803   3.626   6.932   0.629  0.7579  0.1323  0.2371
 1788SOL     OW 6804   6.342   7.834  10.417 -0.0430  0.0576 -0.0099
 1788SOL    HW1 6805   6.366   7.890  10.343 -0.2739 -0.7017 -0.6783
 1788SOL    HW2 6806   6.254   7.803  10.396  0.0386 -0.4579  0.3943
 1789SOL     OW 6807   6.339   0.231   5.488 -0.1920  0.2803 -0.1256
 1789SOL    HW1 6808   6.249   0.263   5.482  0.1799  1.7878  1.5171
 1789SOL    HW2 6809   6.336   0.163   5.555 -0.1066  0.3574 -0.0429
 1790SOL     OW 6810   2.494   2.132   5.312 -0.8721 -0.0437 -0.3973
 1790SOL    HW1 6811   2.546   2.072   5.366 -0.0880  1.1394  0.1993
 1790SOL    HW2 6812   2.471   2.081   5.235  0.3550 -0.8979 -0.2256
 1791SOL     OW 6813   5.805   6.278   2.732 -0.4861 -0.2028 -0.4629
 1791SOL    HW1 6814   5.782   6.363   2.768 -0.0419 -0.5656  0.7054
 1791SOL    HW2 6815   5.893   6.290   2.696 -0.0659 -0.3778  0.4786
 1792SOL     OW 6816   7.895   5.006   3.478 -0.1516  0.1994  0.1680
 1792SOL    HW1 6817   7.850   5.029   3.559  0.4474  1.7212  0.0971
 1792SOL    HW2 6818   7.837   5.039   3.409  0.0614  0.2442  0.0118
 1793SOL     OW 6819   2.787   0.785  10.603  0.4137  0.6053 -0.4087
 1793SOL    HW1 6820   2.809   0.770  10.511  0.4962 -0.0490 -0.2865
 1793SOL    HW2 6821   2.702   0.744  10.615 -0.0926  1.6180 -0.4477
 1794SOL     OW 6822   1.463   1.257   3.739 -0.1180 -0.5367  0.1856
 1794SOL    HW1 6823   1.451   1.232   3.647 -1.3384 -0.5994  0.3519
 1794SOL    HW2 6824   1.503   1.180   3.779  0.3391 -0.5438 -0.2628
 1795SOL     OW 6825   2.556   4.936   1.221 -0.3932 -0.2725  0.2949
 1795SOL    HW1 6826   2.626   4.920   1.284 -0.2602  1.0479  0.5250
 1795SOL    HW2 6827   2.558   5.031   1.208 -2.2715 -0.1830  0.4503
 1796SOL     OW 6828   2.645   4.816   6.003 -0.1052  0.2159 -0.2281
 1796SOL    HW1 6829   2.647   4.893   5.946  0.3539  0.6344  0.3321
 1796SOL    HW2 6830   2.738   4.797   6.019 -0.2280  0.7714  1.2459
 1797SOL     OW 6831   5.430   0.012  12.397 -0.3464 -0.0569 -0.1459
 1797SOL    HW1 6832   5.421   0.050  12.484 -1.0676  0.0939 -0.2810
 1797SOL    HW2 6833   5.362  -0.055  12.393  0.0499 -0.4494 -0.3909
 1798SOL     OW 6834   2.223   0.931   7.864  0.0034 -0.4026  0.2743
 1798SOL    HW1 6835   2.165   1.007   7.867  0.2333 -0.2328  0.4212
 1798SOL    HW2 6836   2.255   0.928   7.774  1.0572  0.4752  0.6040
 1799SOL     OW 6837   7.625   0.789   3.532 -0.4766  0.7666 -0.9324
 1799SOL    HW1 6838   7.712   0.828   3.525  0.8162 -1.2195  1.9917
 1799SOL    HW2 6839   7.619   0.729   3.458  1.1485  0.1201 -0.5820
 1800SOL     OW 6840   0.863   1.477   9.439  0.2608 -0.0579 -0.6428
 1800SOL    HW1 6841   0.926   1.548   9.453 -0.4507  0.5485 -0.4573
 1800SOL    HW2 6842   0.863   1.463   9.344 -1.4510  1.9761 -1.0304
 1801SOL     OW 6843   2.726   1.916   4.320  0.3430 -0.6891 -0.0839
 1801SOL    HW1 6844   2.639   1.876   4.327  0.5631 -1.2095 -0.2869
 1801SOL    HW2 6845   2.708   2.008   4.301 -0.1666 -1.0750 -1.6341
 1802SOL     OW 6846   5.251   7.567   5.494 -0.4858 -0.2284 -0.0363
 1802SOL    HW1 6847   5.314   7.628   5.456 -1.7490  0.6061 -0.8452
 1802SOL    HW2 6848   5.248   7.591   5.587 -2.0230  1.9810 -0.5736
 1803SOL     OW 6849   3.244   2.080   1.835 -0.6213  0.0831  0.1781
 1803SOL    HW1 6850   3.313   2.056   1.774 -0.9801  0.9569 -0.5956
 1803SOL    HW2 6851   3.261   2.027   1.913  1.6839  1.1634  0.5040
 1804SOL     OW 6852   1.396   5.918  10.743 -0.5242 -0.5639  0.5343
 1804SOL    HW1 6853   1.418   5.826  10.762  0.0518 -0.3212  1.0835
 1804SOL    HW2 6854   1.411   5.963  10.826 -0.1985  0.1356  0.0977
 1805SOL     OW 6855   6.757   3.861  11.907 -0.2446  0.2393 -0.3405
 1805SOL    HW1 6856   6.748   3.864  12.002 -1.4191 -0.2132 -0.4138
 1805SOL    HW2 6857   6.811   3.783  11.890  0.9992  1.0109 -0.0067
 1806SOL     OW 6858   3.432   1.728   7.385  0.1801  0.1447 -0.1291
 1806SOL    HW1 6859   3.423   1.732   7.480 -1.2745  1.4973 -0.2823
 1806SOL    HW2 6860   3.488   1.803   7.363  1.3494 -0.7390 -0.2970
 1807SOL     OW 6861   0.934   2.177   7.146 -0.2749  0.3564 -0.1586
 1807SOL    HW1 6862   1.014   2.222   7.172 -0.8300  1.7653 -0.7815
 1807SOL    HW2 6863   0.900   2.140   7.228  1.1648 -0.5715  0.0563
 1808SOL     OW 6864   5.789   1.286  11.872  0.3275 -0.0832  0.4004
 1808SOL    HW1 6865   5.727   1.309  11.941 -0.6270  1.0920 -0.7974
 1808SOL    HW2 6866   5.860   1.350  11.881 -0.7231  1.3165 -0.8580
 1809SOL     OW 6867   7.426   0.247   3.307  0.8147 -0.0991  0.3386
 1809SOL    HW1 6868   7.484   0.321   3.288  0.3715 -0.1115 -1.1908
 1809SOL    HW2 6869   7.475   0.170   3.280  0.1887 -0.1223 -0.7976
 1810SOL     OW 6870   1.846   1.794   2.059  0.1922  0.1816  0.2985
 1810SOL    HW1 6871   1.890   1.837   2.132 -0.2854  0.5972  0.3480
 1810SOL    HW2 6872   1.795   1.725   2.100  1.0874 -0.5592  0.2033
 1811SOL     OW 6873   4.710   6.354  10.232  1.2511 -0.0191 -0.0716
 1811SOL    HW1 6874   4.686   6.375  10.323  2.4318  0.8465  0.0548
 1811SOL    HW2 6875   4.803   6.374  10.226  1.3133 -0.5953 -1.3384
 1812SOL     OW 6876   2.316   7.957   7.237 -0.1569  0.0615  0.0036
 1812SOL    HW1 6877   2.297   8.045   7.207 -1.7706  0.0508  0.8605
 1812SOL    HW2 6878   2.332   7.966   7.331 -1.7360 -0.6872  0.3896
 1813SOL     OW 6879   5.678   4.319   6.103  0.0320  0.1604  0.0647
 1813SOL    HW1 6880   5.709   4.390   6.047 -2.8283  0.3259 -1.4887
 1813SOL    HW2 6881   5.728   4.242   6.074  1.0941  0.9306 -0.2315
 1814SOL     OW 6882   7.165   0.465   2.052  0.4519  0.7966  0.1116
 1814SOL    HW1 6883   7.168   0.386   1.998 -0.4541  1.7962 -1.4731
 1814SOL    HW2 6884   7.222   0.528   2.007  0.2549  1.4298  0.7188
 1815SOL     OW 6885   4.478   0.271   3.222  0.0882 -0.3816 -0.1180
 1815SOL    HW1 6886   4.439   0.333   3.160 -0.5244 -1.2637 -0.6212
 1815SOL    HW2 6887   4.404   0.231   3.266  0.5154  0.2801  1.2733
 1816SOL     OW 6888   3.192   6.605   2.566  0.0959 -0.0584 -0.4257
 1816SOL    HW1 6889   3.214   6.681   2.619  0.3650 -0.5006  0.1043
 1816SOL    HW2 6890   3.109   6.574   2.603  0.2248 -0.2994 -0.3410
 1817SOL     OW 6891   1.481   6.661   2.535  0.0899  0.0829  0.0421
 1817SOL    HW1 6892   1.448   6.649   2.446 -1.7902 -0.0355  0.7050
 1817SOL    HW2 6893   1.544   6.590   2.547 -0.0708 -0.2525 -0.9909
 1818SOL     OW 6894   5.946   5.888  11.133 -0.8978 -0.6582 -0.5661
 1818SOL    HW1 6895   5.943   5.962  11.073 -2.3722 -1.4976 -1.5870
 1818SOL    HW2 6896   5.999   5.919  11.206  0.5139  0.5872 -2.0254
 1819SOL     OW 6897   7.847   2.476   0.300  0.3371  0.6419 -0.4852
 1819SOL    HW1 6898   7.775   2.528   0.336  0.6558 -0.8870  2.7038
 1819SOL    HW2 6899   7.809   2.428   0.226 -1.4953  1.0248  0.1847
 1820SOL     OW 6900   6.826   0.398   5.438  0.2689 -0.1320  0.0105
 1820SOL    HW1 6901   6.813   0.342   5.362 -0.1219  1.6566 -1.3095
 1820SOL    HW2 6902   6.745   0.391   5.488 -0.1339 -0.0775 -0.6232
 1821SOL     OW 6903   0.611   4.362  11.959 -0.0518  0.5344 -0.0794
 1821SOL    HW1 6904   0.613   4.359  11.863  0.6798  0.7426 -0.0760
 1821SOL    HW2 6905   0.626   4.271  11.986  0.6832  0.6273 -0.1586
 1822SOL     OW 6906   4.078   5.097  11.708 -0.1707  0.0444  0.0600
 1822SOL    HW1 6907   4.006   5.035  11.713  0.1408 -0.3469 -0.2822
 1822SOL    HW2 6908   4.153   5.051  11.745 -0.2176  0.6478  0.9463
 1823SOL     OW 6909   6.828   5.785  11.398  0.1107  0.3216  0.4836
 1823SOL    HW1 6910   6.838   5.816  11.308  0.5787  1.2445  0.8344
 1823SOL    HW2 6911   6.889   5.712  11.405  2.4600  2.2016  0.9135
 1824SOL     OW 6912   0.480   3.818   3.986 -0.1315 -0.2907  0.4996
 1824SOL    HW1 6913   0.489   3.723   3.972  0.2300 -0.1085 -0.6225
 1824SOL    HW2 6914   0.394   3.828   4.027 -0.2764 -1.0876  0.4148
 1825SOL     OW 6915   3.213   6.106  10.748  0.5110  0.2423 -0.3764
 1825SOL    HW1 6916   3.217   6.189  10.701  0.2330  0.1091 -0.6370
 1825SOL    HW2 6917   3.124   6.101  10.781  0.3513 -0.2208 -0.8542
 1826SOL     OW 6918   0.763   2.299   7.847  0.4448  0.4764  0.8131
 1826SOL    HW1 6919   0.750   2.286   7.753  2.0055  1.4971  0.4339
 1826SOL    HW2 6920   0.745   2.213   7.885 -0.5273  0.1306 -0.3704
 1827SOL     OW 6921   2.850   7.857   9.341 -0.6756 -0.8450 -0.4028
 1827SOL    HW1 6922   2.885   7.795   9.276 -0.5192 -0.4842 -0.6724
 1827SOL    HW2 6923   2.928   7.894   9.382 -0.5998  1.3163 -2.2724
 1828SOL     OW 6924   5.999   2.397   0.001  0.8463 -0.1477 -0.3633
 1828SOL    HW1 6925   6.015   2.346  -0.079 -0.2306 -0.5101 -0.3678
 1828SOL    HW2 6926   6.076   2.454   0.009  1.0280 -0.1915 -1.5863
 1829SOL     OW 6927   4.220   4.930   1.897 -0.5388  0.3641  0.1291
 1829SOL    HW1 6928   4.213   4.912   1.991 -0.4640 -0.3190  0.0111
 1829SOL    HW2 6929   4.290   4.995   1.890  1.1091 -1.2874  0.3748
 1830SOL     OW 6930   2.009   4.633   7.645 -0.0549 -0.2490  0.2573
 1830SOL    HW1 6931   1.978   4.545   7.669 -0.7052 -0.0076  0.3406
 1830SOL    HW2 6932   2.053   4.621   7.562  1.7962 -1.0189  1.2978
 1831SOL     OW 6933   6.582   2.448   8.676  0.3413 -0.0122  0.1364
 1831SOL    HW1 6934   6.585   2.540   8.699 -0.8912  0.2540 -0.6590
 1831SOL    HW2 6935   6.556   2.404   8.757 -0.1168  0.4681  0.2563
 1832SOL     OW 6936   3.881   2.037   4.808  0.0322 -0.2295  0.6513
 1832SOL    HW1 6937   3.946   2.107   4.808 -0.1993  0.0116 -0.3466
 1832SOL    HW2 6938   3.914   1.972   4.870  0.9167  0.1582  0.5960
 1833SOL     OW 6939   0.001   3.417   7.526 -0.9130  0.6047 -0.1133
 1833SOL    HW1 6940   0.071   3.403   7.462 -0.3435 -1.5181  0.8720
 1833SOL    HW2 6941  -0.025   3.508   7.515  1.1570  1.0910 -1.3562
 1834SOL     OW 6942   5.792   3.513   0.345  0.2428 -0.3096 -0.8280
 1834SOL    HW1 6943   5.848   3.448   0.302  0.4116  0.0699 -1.1795
 1834SOL    HW2 6944   5.769   3.575   0.276  0.4519  0.2608 -0.3905
 1835SOL     OW 6945   4.508   6.976  11.007 -0.0203 -0.0231 -0.0422
 1835SOL    HW1 6946   4.423   6.940  10.983  0.3618  0.0577 -1.6912
 1835SOL    HW2 6947   4.497   7.071  11.004  0.3296 -0.0011 -1.1846
 1836SOL     OW 6948   6.706   2.697   5.074  0.5023  0.0353  0.4339
 1836SOL    HW1 6949   6.687   2.777   5.025 -1.2622 -0.4937  0.1786
 1836SOL    HW2 6950   6.644   2.699   5.147  0.2850 -1.1938  0.3007
 1837SOL     OW 6951   2.450   2.013   0.329  0.3988 -0.0217 -0.3347
 1837SOL    HW1 6952   2.365   1.989   0.366 -0.6515  1.0783 -1.8987
 1837SOL    HW2 6953   2.485   1.931   0.294  0.0239 -0.4948  0.3763
 1838SOL     OW 6954   1.411   6.998   7.577 -0.2928  0.2555 -0.7307
 1838SOL    HW1 6955   1.393   7.080   7.530 -1.7809  0.5887  0.3500
 1838SOL    HW2 6956   1.477   7.022   7.642 -0.5929  0.5694 -0.5359
 1839SOL     OW 6957   7.408   1.416  12.372 -0.4306  0.4240 -0.0242
 1839SOL    HW1 6958   7.451   1.363  12.439  4.7579  1.5114 -1.9831
 1839SOL    HW2 6959   7.358   1.354  12.320  1.5559 -1.7535  0.5021
 1840SOL     OW 6960   1.501   6.339   5.168 -0.1520 -0.1101 -0.4121
 1840SOL    HW1 6961   1.425   6.300   5.126 -1.1581  1.2143  0.1181
 1840SOL    HW2 6962   1.470   6.423   5.202  2.0078  1.4166 -1.9117
 1841SOL     OW 6963   6.226   2.628  11.420 -0.0296 -0.0626 -0.3235
 1841SOL    HW1 6964   6.171   2.551  11.403  0.5071 -0.9188  1.5718
 1841SOL    HW2 6965   6.303   2.593  11.465  0.2600  1.5717  0.5331
 1842SOL     OW 6966   2.209   3.703   1.538  0.3332 -0.6494  0.3290
 1842SOL    HW1 6967   2.181   3.789   1.570 -0.1829 -0.6917  0.0111
 1842SOL    HW2 6968   2.158   3.640   1.590  0.0914 -0.7388 -0.0138
 1843SOL     OW 6969   4.194   0.603   8.028 -0.0836  0.3753  0.0251
 1843SOL    HW1 6970   4.166   0.673   8.087 -2.2327 -1.2863  1.1153
 1843SOL    HW2 6971   4.282   0.580   8.058 -0.3619  0.9017  1.3151
 1844SOL     OW 6972   2.103   7.434  12.120  0.0297  0.3703  0.1626
 1844SOL    HW1 6973   2.196   7.415  12.120  0.1161  0.6842 -1.0654
 1844SOL    HW2 6974   2.078   7.429  12.027 -1.4381 -1.0147  0.5826
 1845SOL     OW 6975   1.259   4.149   2.510  0.4598  0.5248  0.3404
 1845SOL    HW1 6976   1.218   4.119   2.592  0.2469 -0.4365 -0.0958
 1845SOL    HW2 6977   1.185   4.166   2.452  0.6289  0.1984  0.0232
 1846SOL     OW 6978   6.258   7.603   6.059 -0.2047  0.7380  0.3025
 1846SOL    HW1 6979   6.252   7.697   6.043 -1.1153  0.6949  0.3352
 1846SOL    HW2 6980   6.180   7.582   6.110 -1.6992 -0.5576 -2.3165
 1847SOL     OW 6981   6.980   0.257  10.412  0.0716  0.0651  0.8032
 1847SOL    HW1 6982   6.932   0.240  10.331  0.0768  1.2284  0.5397
 1847SOL    HW2 6983   7.071   0.234  10.391  0.2317  1.2010  0.1835
 1848SOL     OW 6984   6.227   6.217   7.612  0.7155  0.2638  0.2066
 1848SOL    HW1 6985   6.296   6.280   7.595  1.3224 -0.4554 -0.0316
 1848SOL    HW2 6986   6.147   6.258   7.578  1.3764  0.1825 -1.5061
 1849SOL     OW 6987   0.543   6.884  12.050  0.2889  0.4092 -0.2874
 1849SOL    HW1 6988   0.503   6.834  12.122 -0.5927 -0.0617 -1.0784
 1849SOL    HW2 6989   0.488   6.864  11.974  0.2730  2.0998 -0.7708
 1850SOL     OW 6990   1.472   7.955   1.386  0.0989  0.3736  0.3250
 1850SOL    HW1 6991   1.464   7.884   1.450 -1.1052  1.1483  1.0719
 1850SOL    HW2 6992   1.510   7.913   1.309 -1.3560 -1.2799  0.4384
 1851SOL     OW 6993   6.562   5.987  10.194  0.3234 -0.1326  0.3072
 1851SOL    HW1 6994   6.592   5.993  10.104  0.9640 -1.1951  0.4341
 1851SOL    HW2 6995   6.618   5.920  10.234 -0.0658  0.1863  1.4438
 1852SOL     OW 6996   2.332   2.239   8.467 -0.2612  0.7309  0.5601
 1852SOL    HW1 6997   2.328   2.184   8.388 -0.7280  0.5097  0.7320
 1852SOL    HW2 6998   2.400   2.199   8.521 -2.0153 -0.9765  1.6221
 1853SOL     OW 6999   3.944   1.888   5.974 -0.5105  0.1728 -0.1708
 1853SOL    HW1 7000   3.888   1.813   5.996 -0.8822  0.5010  0.0211
 1853SOL    HW2 7001   3.886   1.964   5.981 -0.2587  0.4384 -0.8269
 1854SOL     OW 7002   4.627   7.102   1.409  0.2780 -0.3039  0.4086
 1854SOL    HW1 7003   4.557   7.132   1.352 -0.1385 -3.2059 -0.7451
 1854SOL    HW2 7004   4.582   7.069   1.487  0.6069  0.2952  0.8682
 1855SOL     OW 7005   3.756   5.960   0.306  0.2879  0.2533 -0.1172
 1855SOL    HW1 7006   3.822   5.907   0.350  1.0747  2.0605  0.9941
 1855SOL    HW2 7007   3.802   6.040   0.281 -1.3924  1.4821  0.5167
 1856SOL     OW 7008   0.254   3.748  11.204  0.2007  0.4991 -0.0235
 1856SOL    HW1 7009   0.264   3.840  11.179  1.3478  0.3055 -0.3536
 1856SOL    HW2 7010   0.265   3.699  11.123  1.1860  0.0051  0.3882
 1857SOL     OW 7011   0.708   3.816  11.464  0.4535 -0.4342  0.4551
 1857SOL    HW1 7012   0.749   3.846  11.383 -1.9307  2.7805  0.2391
 1857SOL    HW2 7013   0.618   3.794  11.438 -0.1777  0.1056  2.0798
 1858SOL     OW 7014   1.905   4.781  10.839  0.1598  0.0181  0.0299
 1858SOL    HW1 7015   1.976   4.831  10.799  0.1402  0.1433  0.1507
 1858SOL    HW2 7016   1.852   4.846  10.884  0.3536 -0.1569  0.5198
 1859SOL     OW 7017   3.765   6.783   2.298  0.1477  0.5565 -0.2273
 1859SOL    HW1 7018   3.690   6.806   2.353  0.0440 -0.2069 -0.0430
 1859SOL    HW2 7019   3.772   6.857   2.237  0.8010  1.8383  1.3195
 1860SOL     OW 7020   6.762   2.972  10.747 -0.1179 -0.6596 -0.2092
 1860SOL    HW1 7021   6.737   2.889  10.705  1.3123  0.3430 -3.3734
 1860SOL    HW2 7022   6.851   2.988  10.716 -0.0455  1.6668  0.9995
 1861SOL     OW 7023   5.212   0.274   6.643  0.0509 -0.1667 -0.5562
 1861SOL    HW1 7024   5.197   0.328   6.721  2.0861 -0.4968  0.1382
 1861SOL    HW2 7025   5.180   0.327   6.570 -0.6795  0.7228  0.3860
 1862SOL     OW 7026   1.389   4.896   7.070 -0.2694  0.2463  0.6767
 1862SOL    HW1 7027   1.349   4.966   7.121  0.4207  2.0753 -1.1270
 1862SOL    HW2 7028   1.475   4.929   7.046  0.0014 -1.1188 -0.4344
 1863SOL     OW 7029   6.160   6.760   3.433 -0.4067  0.2323  0.1002
 1863SOL    HW1 7030   6.169   6.716   3.517  2.1788 -0.6617 -0.5450
 1863SOL    HW2 7031   6.218   6.836   3.438 -1.0598  0.7821 -0.5008
 1864SOL     OW 7032   6.682   6.069   4.114  0.2400 -0.0131 -0.3957
 1864SOL    HW1 7033   6.718   6.062   4.026  0.1568 -1.0507 -0.3643
 1864SOL    HW2 7034   6.618   6.140   4.108 -1.1769 -1.2980 -1.6992
 1865SOL     OW 7035   5.004   6.870   9.526 -0.6647 -0.0288 -0.0871
 1865SOL    HW1 7036   5.097   6.862   9.506 -0.5485 -0.3174  0.5389
 1865SOL    HW2 7037   4.980   6.957   9.496 -0.2237 -0.0099 -0.3873
 1866SOL     OW 7038   2.831   0.942   9.129  0.1905  0.0350  0.5336
 1866SOL    HW1 7039   2.788   0.916   9.211 -0.6108  0.1542  0.1614
 1866SOL    HW2 7040   2.829   0.863   9.075  3.0886 -0.8620  1.5459
 1867SOL     OW 7041   3.652   5.917   8.350 -0.2653 -0.2631 -0.2535
 1867SOL    HW1 7042   3.699   5.992   8.386 -0.6141  0.2100 -0.7691
 1867SOL    HW2 7043   3.659   5.850   8.418  0.9547 -0.1368 -0.2224
 1868SOL     OW 7044   6.166   2.808   1.580 -0.3249 -0.4037  0.5778
 1868SOL    HW1 7045   6.226   2.879   1.603 -0.7074  0.0317  0.2305
 1868SOL    HW2 7046   6.155   2.815   1.486 -0.5969 -0.7408  0.5830
 1869SOL     OW 7047   2.236   1.751   7.155 -0.0703 -0.7154 -0.0372
 1869SOL    HW1 7048   2.226   1.826   7.097  0.8736  0.2705  1.0327
 1869SOL    HW2 7049   2.167   1.761   7.220 -0.6466 -1.4099 -0.5176
 1870SOL     OW 7050   4.083   2.635   0.719 -0.5500  0.0304 -0.4151
 1870SOL    HW1 7051   4.005   2.583   0.700 -0.0798 -1.6466  1.8638
 1870SOL    HW2 7052   4.076   2.658   0.811  0.9102  1.2211 -0.5448
 1871SOL     OW 7053   4.240   6.213  12.191  0.1640  0.2085 -0.0473
 1871SOL    HW1 7054   4.318   6.268  12.183 -1.6754  2.8652 -1.2353
 1871SOL    HW2 7055   4.183   6.261  12.251 -0.5712 -1.7406  0.8973
 1872SOL     OW 7056   1.389   4.062   7.481 -0.2434  0.4771  0.0045
 1872SOL    HW1 7057   1.416   3.971   7.494  1.7905  0.8330 -1.2333
 1872SOL    HW2 7058   1.417   4.107   7.561 -0.2527  0.2155  0.1540
 1873SOL     OW 7059   4.792   5.221   3.798  0.4968  0.3034 -0.3041
 1873SOL    HW1 7060   4.796   5.313   3.771  1.1421  0.3061 -0.2293
 1873SOL    HW2 7061   4.883   5.192   3.797  0.3268 -0.2588 -0.0551
 1874SOL     OW 7062   2.428   5.429   4.016 -0.0455 -0.1143  0.2668
 1874SOL    HW1 7063   2.437   5.385   4.101 -0.4455 -2.2303 -0.7223
 1874SOL    HW2 7064   2.468   5.369   3.953 -0.7405  0.8802 -1.1844
 1875SOL     OW 7065   6.205   2.996  12.361 -0.2259  0.5426  0.0677
 1875SOL    HW1 7066   6.234   2.921  12.413  0.4899 -1.6045 -3.1444
 1875SOL    HW2 7067   6.271   3.064  12.378 -0.8025  0.5195  2.9091
 1876SOL     OW 7068   0.652   5.005   8.051 -0.2084 -1.3999 -0.0497
 1876SOL    HW1 7069   0.601   4.946   7.996  0.1688 -1.6867 -0.0957
 1876SOL    HW2 7070   0.635   5.092   8.015 -2.0467 -1.2708  1.0030
 1877SOL     OW 7071   1.609   1.064   7.682  0.4650  0.9496  0.2541
 1877SOL    HW1 7072   1.580   1.070   7.773 -0.0127  2.7551  0.0037
 1877SOL    HW2 7073   1.681   1.001   7.685  0.1900  0.6581  1.8042
 1878SOL     OW 7074   0.385   6.795   4.047 -0.0371 -0.0901 -0.5395
 1878SOL    HW1 7075   0.446   6.827   4.114 -1.6986 -1.6604  1.8718
 1878SOL    HW2 7076   0.438   6.789   3.968  1.6108  3.5785  0.0594
 1879SOL     OW 7077   4.944   1.259  11.533 -0.1770  0.2785  0.0930
 1879SOL    HW1 7078   4.882   1.314  11.582 -0.0681  0.4387  0.0524
 1879SOL    HW2 7079   5.016   1.244  11.594  0.1006  0.7291 -0.1119
 1880SOL     OW 7080   1.556   0.664   8.083  0.3098 -0.0346 -0.0936
 1880SOL    HW1 7081   1.578   0.745   8.128  0.0981  0.3839 -0.7398
 1880SOL    HW2 7082   1.480   0.686   8.030 -0.5095 -0.9670  0.6486
 1881SOL     OW 7083   7.090   4.565  10.691 -0.2043 -0.1556 -0.5060
 1881SOL    HW1 7084   7.044   4.500  10.638 -0.6795 -1.3090  1.2471
 1881SOL    HW2 7085   7.038   4.571  10.772  0.2685  1.8359 -0.2930
 1882SOL     OW 7086   3.521   0.228   7.676 -0.4289 -0.0646  0.8050
 1882SOL    HW1 7087   3.588   0.202   7.740  0.7301 -0.5886 -0.5491
 1882SOL    HW2 7088   3.546   0.316   7.650 -0.1568 -0.3083  0.2040
 1883SOL     OW 7089   7.925   6.049   2.252  0.3348  0.2110 -0.4408
 1883SOL    HW1 7090   7.872   6.128   2.257 -1.6585 -1.0990  0.4995
 1883SOL    HW2 7091   7.891   6.001   2.177  0.0744 -0.7129  0.2484
 1884SOL     OW 7092   4.525   4.239   6.536  0.3840  0.1963  0.2877
 1884SOL    HW1 7093   4.468   4.278   6.469  0.8187  1.1758  0.4713
 1884SOL    HW2 7094   4.527   4.146   6.514 -0.3402  0.3298 -0.4197
 1885SOL     OW 7095   2.050   4.388   8.932 -1.1311  0.0574 -0.2869
 1885SOL    HW1 7096   2.073   4.296   8.947 -2.6506 -0.3996 -0.5993
 1885SOL    HW2 7097   2.083   4.407   8.844 -2.1185 -0.6484 -0.8186
 1886SOL     OW 7098   3.420   1.900   1.425  0.2732  0.6377  0.0861
 1886SOL    HW1 7099   3.377   1.920   1.342  0.5150  0.2875 -0.1274
 1886SOL    HW2 7100   3.470   1.820   1.408 -0.5986 -0.1080  0.8846
 1887SOL     OW 7101   7.646   5.758   3.162  0.3732 -0.2115 -0.2737
 1887SOL    HW1 7102   7.650   5.671   3.123  0.9214 -0.2853 -0.0637
 1887SOL    HW2 7103   7.687   5.815   3.097  0.0926 -0.1232 -0.3740
 1888SOL     OW 7104   5.080   0.181  10.872 -0.2186 -0.5760 -0.2251
 1888SOL    HW1 7105   5.103   0.185  10.964 -0.2763  0.4098 -0.2389
 1888SOL    HW2 7106   5.096   0.090  10.846 -0.2925 -0.8759  0.7712
 1889SOL     OW 7107   3.713   5.514   1.173  0.0867 -0.3465 -0.5284
 1889SOL    HW1 7108   3.759   5.565   1.107  1.3486 -0.9918 -0.1937
 1889SOL    HW2 7109   3.734   5.558   1.256 -1.3156  0.3391 -0.5043
 1890SOL     OW 7110   0.582   2.389   3.904 -0.5408  0.6314 -0.1562
 1890SOL    HW1 7111   0.638   2.359   3.976 -0.0030  1.2136 -0.3256
 1890SOL    HW2 7112   0.635   2.375   3.826  0.4278  3.4801 -0.1383
 1891SOL     OW 7113   4.037   2.284   7.890  0.4579 -0.1383 -0.2178
 1891SOL    HW1 7114   3.944   2.293   7.907  0.4991  0.6777 -0.3661
 1891SOL    HW2 7115   4.077   2.355   7.940  0.9802 -0.3391 -0.3408
 1892SOL     OW 7116   7.055   6.360  10.383 -0.0086  0.6678 -0.4885
 1892SOL    HW1 7117   6.996   6.296  10.423 -0.1977  1.6782  0.9697
 1892SOL    HW2 7118   7.022   6.445  10.415  0.4598  1.4683 -2.0427
 1893SOL     OW 7119   1.093   3.304   6.005 -0.4797  0.1013 -0.3515
 1893SOL    HW1 7120   1.121   3.330   5.918  0.1093 -1.6900 -0.7521
 1893SOL    HW2 7121   0.997   3.304   6.001 -0.4956  1.5995 -0.4645
 1894SOL     OW 7122   1.586   4.025   0.040 -0.2059  0.0356  0.6391
 1894SOL    HW1 7123   1.655   4.087   0.015 -0.7504  0.7010  0.7476
 1894SOL    HW2 7124   1.607   3.945  -0.008 -1.3103  1.3111 -2.2461
 1895SOL     OW 7125   1.723   1.139   9.229  0.9898  0.1565  0.4281
 1895SOL    HW1 7126   1.774   1.193   9.169  1.3029 -0.4728  0.1242
 1895SOL    HW2 7127   1.648   1.110   9.177 -0.1051  1.6971  1.0885
 1896SOL     OW 7128   2.482   1.594   6.346 -0.2415 -0.2784  0.0121
 1896SOL    HW1 7129   2.486   1.687   6.325 -0.5732 -0.0624  0.8726
 1896SOL    HW2 7130   2.404   1.585   6.401 -0.6810 -1.2004 -0.7285
 1897SOL     OW 7131   5.262   5.334   1.681  0.0102 -0.2312 -0.2148
 1897SOL    HW1 7132   5.313   5.253   1.687  0.8813  0.3374  0.3758
 1897SOL    HW2 7133   5.255   5.351   1.588  0.4424 -0.6209 -0.3248
 1898SOL     OW 7134   6.697   4.600   5.733 -0.2010 -0.2288 -0.0807
 1898SOL    HW1 7135   6.698   4.624   5.826 -3.0517  1.1339 -0.2977
 1898SOL    HW2 7136   6.773   4.646   5.696  0.6663 -0.3548  1.4388
 1899SOL     OW 7137   5.099   4.659   2.405  0.0442  0.0682  0.0244
 1899SOL    HW1 7138   5.093   4.651   2.310  0.5484 -1.0834  0.0609
 1899SOL    HW2 7139   5.189   4.631   2.425  0.3018  1.3497  0.7488
 1900SOL     OW 7140   1.169   4.618   8.581 -0.4506 -0.3751 -0.1960
 1900SOL    HW1 7141   1.233   4.588   8.645 -1.2919 -1.4466  0.1783
 1900SOL    HW2 7142   1.098   4.554   8.586 -1.5298  0.7406 -0.6372
 1901SOL     OW 7143   4.271   2.763   0.989  1.0478  0.1230  0.6678
 1901SOL    HW1 7144   4.322   2.689   0.959  1.1517 -0.2337  1.6685
 1901SOL    HW2 7145   4.317   2.793   1.068  1.0024  1.2424  0.2937
 1902SOL     OW 7146   2.976   2.503   0.819 -0.0968 -0.0565 -0.1396
 1902SOL    HW1 7147   2.936   2.485   0.904  0.8612 -0.5754  0.2064
 1902SOL    HW2 7148   2.905   2.542   0.767 -1.5365 -2.4687 -0.0944
 1903SOL     OW 7149   5.441   5.089   4.120  0.0125  0.4634  0.1532
 1903SOL    HW1 7150   5.427   5.061   4.029 -1.6993  1.4081  0.0725
 1903SOL    HW2 7151   5.512   5.034   4.152 -0.9005 -1.5290 -1.0422
 1904SOL     OW 7152   3.317   5.582   8.521  0.6586 -1.3954 -0.4146
 1904SOL    HW1 7153   3.283   5.626   8.443 -1.0208 -2.4986 -0.3441
 1904SOL    HW2 7154   3.315   5.649   8.589 -1.1293 -1.3252 -0.4934
 1905SOL     OW 7155   4.625   3.738   1.149 -0.3359 -0.3229 -0.4370
 1905SOL    HW1 7156   4.558   3.680   1.112  0.6842 -1.6167 -0.3277
 1905SOL    HW2 7157   4.666   3.686   1.218  1.6414 -0.0660 -1.3477
 1906SOL     OW 7158   3.311   7.289   9.310  0.0147 -0.4745 -0.4415
 1906SOL    HW1 7159   3.321   7.285   9.215  0.1942 -2.0059 -0.3845
 1906SOL    HW2 7160   3.393   7.325   9.342 -0.4060  0.9493 -0.9125
 1907SOL     OW 7161   7.478   1.674   7.344  0.4556  0.0248  0.1223
 1907SOL    HW1 7162   7.512   1.680   7.433 -0.6704  1.7901  0.5002
 1907SOL    HW2 7163   7.469   1.765   7.316 -0.5140 -0.4623 -1.2681
 1908SOL     OW 7164   6.195   5.255   4.400 -0.2832 -0.4417  0.6270
 1908SOL    HW1 7165   6.273   5.243   4.454 -0.3910 -2.0771  0.4788
 1908SOL    HW2 7166   6.134   5.188   4.431 -1.3792  0.3760  0.2934
 1909SOL     OW 7167   1.454   7.042   5.757 -0.0589 -0.1055 -0.2934
 1909SOL    HW1 7168   1.485   7.105   5.692 -2.2961  0.5111 -0.8519
 1909SOL    HW2 7169   1.516   6.970   5.753  0.8942  0.7599 -1.7801
 1910SOL     OW 7170   1.700   7.688   1.284 -0.0512  0.1293 -0.1280
 1910SOL    HW1 7171   1.729   7.778   1.274 -0.0844  0.0586 -1.0084
 1910SOL    HW2 7172   1.714   7.667   1.376 -0.7544  1.2789  0.2603
 1911SOL     OW 7173   3.353   5.867   2.125  0.1672  0.5862  0.4743
 1911SOL    HW1 7174   3.359   5.779   2.163  0.7658  0.0529 -0.8036
 1911SOL    HW2 7175   3.435   5.910   2.151 -0.2857  0.9199  1.4107
 1912SOL     OW 7176   0.383   5.607  10.473  1.6385 -0.2919  0.0450
 1912SOL    HW1 7177   0.311   5.563  10.518  1.2987 -1.8758 -1.8964
 1912SOL    HW2 7178   0.348   5.694  10.451  0.6491 -0.6982 -0.0360
 1913SOL     OW 7179   7.393   1.248   1.890  0.3382  0.0663 -0.0092
 1913SOL    HW1 7180   7.354   1.330   1.859 -1.1785 -0.1256  1.2726
 1913SOL    HW2 7181   7.368   1.243   1.982  3.7770  0.0942  1.0884
 1914SOL     OW 7182   4.312   5.735   1.267  0.2779 -0.0959 -0.0750
 1914SOL    HW1 7183   4.326   5.827   1.289  0.9609 -0.1638 -0.2241
 1914SOL    HW2 7184   4.327   5.729   1.173  1.2235 -0.5415  0.0962
 1915SOL     OW 7185   0.691   5.657   8.034 -0.5173  0.3425  0.1689
 1915SOL    HW1 7186   0.763   5.713   8.005 -0.1783 -0.0206  0.3105
 1915SOL    HW2 7187   0.716   5.569   8.005 -0.7911  0.1814  0.4269
 1916SOL     OW 7188   3.777   6.950   0.476  0.0015  0.2094  0.1787
 1916SOL    HW1 7189   3.828   6.871   0.460  1.2280  0.5507  2.0030
 1916SOL    HW2 7190   3.840   7.013   0.512 -1.5433  0.8681  1.9647
 1917SOL     OW 7191   6.387   6.037   6.122 -0.4793  0.2998 -0.4597
 1917SOL    HW1 7192   6.437   6.118   6.135  0.1880  0.2347 -2.3431
 1917SOL    HW2 7193   6.336   6.053   6.043 -0.2183 -1.1708 -0.9466
 1918SOL     OW 7194   5.764   2.914  11.550  0.1612  0.3076 -0.1086
 1918SOL    HW1 7195   5.846   2.885  11.511 -0.0777 -0.4977 -0.0371
 1918SOL    HW2 7196   5.790   2.958  11.631  0.5788  0.9525 -0.5796
 1919SOL     OW 7197   4.632   3.222  10.656  0.1012  0.1147  0.3477
 1919SOL    HW1 7198   4.614   3.310  10.625  1.7701  1.0033  1.7175
 1919SOL    HW2 7199   4.718   3.228  10.698 -0.1932 -1.9244  1.4029
 1920SOL     OW 7200   3.583   0.686   4.307 -0.0524 -0.4536 -0.3073
 1920SOL    HW1 7201   3.514   0.703   4.371 -0.3331  0.4794 -0.8476
 1920SOL    HW2 7202   3.649   0.753   4.325  1.1097 -1.8068  0.7242
 1921SOL     OW 7203   6.975   0.508  12.249  0.1984 -0.3247  0.2244
 1921SOL    HW1 7204   6.989   0.478  12.160  1.9097 -0.5830  0.5347
 1921SOL    HW2 7205   7.061   0.501  12.290 -1.1860 -3.7967  3.0138
 1922SOL     OW 7206   4.985   6.484  10.834  0.0706 -0.5898 -0.0981
 1922SOL    HW1 7207   4.973   6.429  10.756  1.3119 -0.0717 -0.6942
 1922SOL    HW2 7208   5.061   6.538  10.812 -0.4027  0.5190  0.9505
 1923SOL     OW 7209   0.168   7.463   0.877 -0.5064 -0.1841 -0.2933
 1923SOL    HW1 7210   0.132   7.461   0.966 -0.2543  1.7517 -0.1007
 1923SOL    HW2 7211   0.248   7.514   0.884 -0.0058 -0.7664 -1.4866
 1924SOL     OW 7212   5.932   7.560   8.388 -0.1123 -0.1605  0.1026
 1924SOL    HW1 7213   5.943   7.468   8.365  1.5607 -0.2966  1.2564
 1924SOL    HW2 7214   5.839   7.568   8.409  0.1271 -2.2945  2.6036
 1925SOL     OW 7215   6.606   3.341  12.068 -0.0292  0.2663 -0.2060
 1925SOL    HW1 7216   6.655   3.402  12.013 -0.6835 -0.0289 -1.1437
 1925SOL    HW2 7217   6.659   3.261  12.067  0.6001  0.6528  0.6558
 1926SOL     OW 7218   6.848   6.731  10.202  0.0893  0.2318 -0.1827
 1926SOL    HW1 7219   6.850   6.713  10.108  1.1291 -0.7499 -0.0029
 1926SOL    HW2 7220   6.894   6.814  10.212 -1.3488  1.1238 -0.6623
 1927SOL     OW 7221   4.987   4.262   4.883  0.4429 -0.2471  0.0640
 1927SOL    HW1 7222   5.041   4.214   4.946  1.7364  1.4436  0.3083
 1927SOL    HW2 7223   5.026   4.243   4.798  2.5939  2.2626  0.3737
 1928SOL     OW 7224   7.783   3.390   9.066 -0.1906 -0.9054  0.3975
 1928SOL    HW1 7225   7.841   3.409   8.992  0.1475  0.6878  1.0329
 1928SOL    HW2 7226   7.746   3.304   9.046  0.4881 -0.8519 -1.2393
 1929SOL     OW 7227   1.216   6.906   9.802  0.3994  0.1404 -0.5951
 1929SOL    HW1 7228   1.163   6.947   9.871  1.1487  1.1463 -0.5872
 1929SOL    HW2 7229   1.163   6.915   9.723  1.1269  2.5326 -0.8993
 1930SOL     OW 7230   6.397   7.839   2.093 -0.3718  0.1133 -0.4098
 1930SOL    HW1 7231   6.467   7.900   2.113 -0.2246 -1.0105  3.3179
 1930SOL    HW2 7232   6.320   7.894   2.078  0.1755  1.2794  0.8745
 1931SOL     OW 7233   4.986   5.559   6.501 -0.1081  0.1277 -0.3783
 1931SOL    HW1 7234   4.938   5.567   6.419  0.4222  0.6209 -0.6523
 1931SOL    HW2 7235   4.950   5.481   6.543  0.8270 -1.1801 -1.9079
 1932SOL     OW 7236   4.351   2.003  11.800 -0.0003 -0.3426 -0.2800
 1932SOL    HW1 7237   4.323   1.912  11.790  1.0545 -0.6650 -0.3373
 1932SOL    HW2 7238   4.273   2.054  11.778 -1.0853 -1.2314  1.2970
 1933SOL     OW 7239   0.504   6.472   8.472 -0.5121 -0.1827 -0.9179
 1933SOL    HW1 7240   0.553   6.484   8.390  0.9452 -0.4452 -0.1173
 1933SOL    HW2 7241   0.481   6.379   8.472  0.1516 -0.3459 -0.6667
 1934SOL     OW 7242   5.382   1.332  12.180 -0.0307 -0.0905 -0.0243
 1934SOL    HW1 7243   5.312   1.397  12.188  0.4045  0.6105 -1.5939
 1934SOL    HW2 7244   5.411   1.317  12.270 -0.5869  1.3948  0.4281
 1935SOL     OW 7245   2.145   7.956   5.831  0.2934  0.0516  0.4052
 1935SOL    HW1 7246   2.112   8.018   5.766 -0.3270  0.3816  1.0192
 1935SOL    HW2 7247   2.239   7.949   5.813  0.4211  1.3752  0.4881
 1936SOL     OW 7248   5.730   2.239   3.164 -0.1458  0.8712 -0.3136
 1936SOL    HW1 7249   5.701   2.204   3.080 -0.0819  1.0530 -0.4100
 1936SOL    HW2 7250   5.783   2.169   3.202 -1.8013 -0.0140  0.4658
 1937SOL     OW 7251   7.621   2.733   2.584  0.1619  0.2760  0.6918
 1937SOL    HW1 7252   7.620   2.748   2.489 -0.6157  0.5905  0.7420
 1937SOL    HW2 7253   7.601   2.818   2.622 -1.7896 -0.3038  1.0597
 1938SOL     OW 7254   2.711   5.909   6.196 -0.5176 -0.5243 -0.0823
 1938SOL    HW1 7255   2.756   5.970   6.138 -0.1558  1.5016  2.1573
 1938SOL    HW2 7256   2.639   5.960   6.233 -1.0284 -1.8659  0.8581
 1939SOL     OW 7257   4.655   5.509   4.130 -0.4216 -0.7085  0.4684
 1939SOL    HW1 7258   4.745   5.479   4.122 -0.8993 -1.7368 -1.5144
 1939SOL    HW2 7259   4.618   5.498   4.043 -2.1809  0.6923  0.9759
 1940SOL     OW 7260   2.835   3.391   1.664 -0.0668  0.0425 -0.0393
 1940SOL    HW1 7261   2.886   3.456   1.712  1.2523 -0.5991 -0.5452
 1940SOL    HW2 7262   2.843   3.311   1.716  0.1298 -0.2765 -0.5581
 1941SOL     OW 7263   6.182   6.274   3.230 -0.8503 -0.5976  0.2757
 1941SOL    HW1 7264   6.194   6.317   3.315  3.9727 -0.2483 -0.3001
 1941SOL    HW2 7265   6.123   6.331   3.182 -0.9121  1.0906  2.2348
 1942SOL     OW 7266   6.691   2.387   9.311  0.0597  0.2790  0.4145
 1942SOL    HW1 7267   6.683   2.468   9.361 -2.0732  1.2073 -1.2153
 1942SOL    HW2 7268   6.695   2.318   9.377  1.1681  1.6424  1.8449
 1943SOL     OW 7269   1.853   7.219   7.635 -0.2020 -0.3448  0.0144
 1943SOL    HW1 7270   1.867   7.273   7.557 -1.0482 -0.0312  0.0693
 1943SOL    HW2 7271   1.936   7.173   7.648 -0.1204 -0.5709 -1.2038
 1944SOL     OW 7272   6.970   0.170   6.757 -0.7839 -0.1728  0.2661
 1944SOL    HW1 7273   6.956   0.206   6.845 -0.1133 -0.1304  0.3551
 1944SOL    HW2 7274   7.064   0.156   6.751 -0.6232  1.1442 -0.9628
 1945SOL     OW 7275   4.748   7.759   5.806 -0.1549  0.5978 -0.2421
 1945SOL    HW1 7276   4.836   7.728   5.824 -0.9470 -0.7700  1.5347
 1945SOL    HW2 7277   4.717   7.704   5.734 -0.3333 -0.4708  0.6322
 1946SOL     OW 7278   4.901   2.420   5.412  0.0598 -0.1957  0.2134
 1946SOL    HW1 7279   4.893   2.512   5.435 -2.0626 -0.5802  1.2301
 1946SOL    HW2 7280   4.995   2.401   5.423  0.4202  1.6528  0.6477
 1947SOL     OW 7281   7.804   6.918   3.662 -0.2304  0.0175  0.5137
 1947SOL    HW1 7282   7.838   6.915   3.573 -0.3348 -0.9054  0.5009
 1947SOL    HW2 7283   7.850   6.848   3.708 -2.2743 -1.4562  0.4318
 1948SOL     OW 7284   7.356   6.953   6.693  0.0079  0.3304  0.3402
 1948SOL    HW1 7285   7.411   6.946   6.771  1.1911  0.3532 -0.4759
 1948SOL    HW2 7286   7.369   7.043   6.663  2.4577 -0.6509 -1.9205
 1949SOL     OW 7287   0.747   7.862   7.638  0.3734  0.0361  0.0280
 1949SOL    HW1 7288   0.770   7.899   7.723 -0.1738  1.7094 -0.4964
 1949SOL    HW2 7289   0.676   7.919   7.606 -0.6779 -1.6362 -0.7670
 1950SOL     OW 7290   3.700   5.536   8.014 -0.2586  0.5074  0.0378
 1950SOL    HW1 7291   3.662   5.585   8.086 -0.9490  0.8672 -0.5527
 1950SOL    HW2 7292   3.780   5.584   7.991 -0.0844  0.4395  0.4988
 1951SOL     OW 7293   1.548   3.339   8.732  0.4392 -0.1366  0.0506
 1951SOL    HW1 7294   1.461   3.362   8.702  0.7218  1.3637  0.2877
 1951SOL    HW2 7295   1.564   3.252   8.696 -0.9231 -0.1969 -0.4602
 1952SOL     OW 7296   6.603   5.317   7.142 -0.1649  0.2277  0.9214
 1952SOL    HW1 7297   6.622   5.353   7.229  1.3312  1.1389  0.2597
 1952SOL    HW2 7298   6.521   5.359   7.116  1.0295  2.5150  0.5899
 1953SOL     OW 7299   4.686   7.115   2.017 -1.0700 -0.3615  0.5843
 1953SOL    HW1 7300   4.761   7.174   2.026  0.0485 -1.7522  0.6908
 1953SOL    HW2 7301   4.612   7.173   1.996 -0.3595  1.2345  2.2525
 1954SOL     OW 7302   7.380   0.883   8.173  0.2977  0.1353 -0.8507
 1954SOL    HW1 7303   7.359   0.918   8.259 -0.1773  0.4845 -1.1003
 1954SOL    HW2 7304   7.406   0.792   8.189  2.4766  0.8186 -0.0749
 1955SOL     OW 7305   3.287   0.648   9.245  0.4170 -0.0281 -0.3970
 1955SOL    HW1 7306   3.314   0.702   9.319  2.8528  0.8264 -1.7866
 1955SOL    HW2 7307   3.222   0.700   9.198  1.5724  1.0734 -0.8347
 1956SOL     OW 7308   0.310   4.106   2.672 -0.4323 -0.5508 -0.0188
 1956SOL    HW1 7309   0.341   4.029   2.625 -0.2655 -0.0707 -0.7103
 1956SOL    HW2 7310   0.271   4.162   2.605 -0.0815  0.1981  0.3861
 1957SOL     OW 7311   6.734   6.482  11.649 -0.0368 -0.2460 -0.5564
 1957SOL    HW1 7312   6.669   6.523  11.592 -0.0859 -0.2649 -0.5150
 1957SOL    HW2 7313   6.682   6.429  11.710 -0.0869  0.8144  0.3608
 1958SOL     OW 7314   7.670   4.902   4.678  0.2629  0.4171  0.0626
 1958SOL    HW1 7315   7.733   4.831   4.694 -0.2724 -0.1285 -0.2025
 1958SOL    HW2 7316   7.677   4.958   4.755  1.0708  0.3636  0.0387
 1959SOL     OW 7317   1.848   2.289   1.904 -0.1970 -0.6806 -0.2328
 1959SOL    HW1 7318   1.847   2.322   1.993  2.0380  1.2985 -0.8440
 1959SOL    HW2 7319   1.925   2.232   1.900 -0.7640 -1.4359 -0.6942
 1960SOL     OW 7320   4.100   0.177   2.841  0.2967 -0.1895  0.2970
 1960SOL    HW1 7321   4.021   0.222   2.873 -0.9214 -0.6490 -1.8743
 1960SOL    HW2 7322   4.161   0.247   2.820 -0.5072  0.3242 -0.3755
 1961SOL     OW 7323   6.771   1.766   1.245  0.1489 -0.5760 -0.2644
 1961SOL    HW1 7324   6.699   1.733   1.190  0.0774 -1.3206  0.2666
 1961SOL    HW2 7325   6.831   1.692   1.253  1.8311  0.4882 -2.0390
 1962SOL     OW 7326   7.551   0.413   5.129 -0.5987  0.4071  0.0186
 1962SOL    HW1 7327   7.560   0.497   5.085 -0.6164 -0.1900 -1.1424
 1962SOL    HW2 7328   7.626   0.362   5.099  0.5016  0.6102  2.1711
 1963SOL     OW 7329   1.578   2.029  10.850 -0.0632  0.7190 -0.3975
 1963SOL    HW1 7330   1.651   2.081  10.819  0.8911  0.1487  0.8249
 1963SOL    HW2 7331   1.604   1.938  10.836 -2.0219  0.4597 -3.2287
 1964SOL     OW 7332   7.596   6.121   9.480  0.0240 -0.8837 -0.6944
 1964SOL    HW1 7333   7.506   6.089   9.477 -0.2314 -0.3383  0.5498
 1964SOL    HW2 7334   7.618   6.138   9.388 -0.8224 -1.8517 -1.1008
 1965SOL     OW 7335   3.050   4.586   1.913 -0.1075  0.0903  0.6235
 1965SOL    HW1 7336   3.118   4.624   1.857 -1.5730  1.8788 -0.0167
 1965SOL    HW2 7337   3.087   4.594   2.002  1.0736 -0.2204  0.1819
 1966SOL     OW 7338   2.499   5.371  10.509 -0.3451  0.1449  0.0749
 1966SOL    HW1 7339   2.480   5.306  10.576 -2.2393  0.2724 -0.2689
 1966SOL    HW2 7340   2.447   5.344  10.433  0.4929  0.8888 -0.7982
 1967SOL     OW 7341   6.832   5.893  12.258 -0.0604  0.1518 -0.1853
 1967SOL    HW1 7342   6.741   5.899  12.284  0.5232 -0.8072  2.4021
 1967SOL    HW2 7343   6.838   5.812  12.207 -0.4600 -0.3725  0.5967
 1968SOL     OW 7344   2.788   6.358   4.189  0.2264 -0.1044  0.6360
 1968SOL    HW1 7345   2.831   6.316   4.115 -1.1851 -0.4953 -0.0116
 1968SOL    HW2 7346   2.803   6.298   4.262 -0.7317 -1.1642 -0.0027
 1969SOL     OW 7347   0.280   6.227   3.183 -0.2631 -0.2432 -0.1952
 1969SOL    HW1 7348   0.332   6.147   3.182 -0.3595 -0.3776  1.8642
 1969SOL    HW2 7349   0.214   6.214   3.115  0.8305 -1.1093 -1.1423
 1970SOL     OW 7350   5.937   3.695   3.958 -0.0562 -0.0286  0.3881
 1970SOL    HW1 7351   5.881   3.683   3.881  0.3578  0.0734  0.0632
 1970SOL    HW2 7352   6.024   3.667   3.928  0.4734  1.5582  0.2945
 1971SOL     OW 7353   1.580   1.863  11.866 -0.4272 -0.4186 -0.2280
 1971SOL    HW1 7354   1.488   1.886  11.875 -0.7124 -0.6425 -2.0818
 1971SOL    HW2 7355   1.601   1.883  11.774  1.6326  0.5251  0.3817
 1972SOL     OW 7356   3.724   0.258  12.234  0.3649 -0.0016  0.0181
 1972SOL    HW1 7357   3.782   0.268  12.159 -0.5280  0.3583 -0.6297
 1972SOL    HW2 7358   3.783   0.234  12.306  1.1471 -1.1573 -0.9594
 1973SOL     OW 7359   0.280   2.869  10.445 -0.1870  0.0278  0.0808
 1973SOL    HW1 7360   0.348   2.902  10.386 -1.3623  0.2869 -1.1764
 1973SOL    HW2 7361   0.315   2.885  10.533  0.5323  2.0179 -0.5048
 1974SOL     OW 7362   5.268   1.581   4.861 -0.1196 -0.3537 -0.1387
 1974SOL    HW1 7363   5.345   1.621   4.902 -0.6521  1.1569 -0.5769
 1974SOL    HW2 7364   5.194   1.607   4.915 -0.7393  1.0723 -1.5766
 1975SOL     OW 7365   4.402   5.045   3.096  0.1856  0.8616 -0.0779
 1975SOL    HW1 7366   4.454   5.088   3.164  0.6497 -0.0417  0.1464
 1975SOL    HW2 7367   4.461   4.980   3.058 -1.0039 -0.7485  0.7348
 1976SOL     OW 7368   4.221   1.846   4.061  0.5243  0.0868  0.4757
 1976SOL    HW1 7369   4.218   1.767   4.116 -2.3455 -1.9780 -2.2587
 1976SOL    HW2 7370   4.267   1.819   3.982 -0.0235  1.3348 -0.2971
 1977SOL     OW 7371   7.779   5.888   8.280  0.0713  0.1619 -0.0592
 1977SOL    HW1 7372   7.766   5.799   8.313  0.9036 -0.1522 -0.5574
 1977SOL    HW2 7373   7.847   5.925   8.336  0.4555  0.1222 -0.4866
 1978SOL     OW 7374   4.191   7.593  10.341  0.3071 -0.7624  0.7120
 1978SOL    HW1 7375   4.238   7.570  10.261  0.3700  1.1755  0.1478
 1978SOL    HW2 7376   4.227   7.678  10.366 -1.1197 -0.4276  1.7010
 1979SOL     OW 7377   1.467   6.760  11.602  0.1114  0.2518  0.6382
 1979SOL    HW1 7378   1.428   6.846  11.585 -2.3131 -0.7243  0.7643
 1979SOL    HW2 7379   1.522   6.773  11.679  0.6748  1.9060 -0.0045
 1980SOL     OW 7380   7.054   4.979   9.577 -0.0799  0.0949 -0.1953
 1980SOL    HW1 7381   7.097   5.061   9.552  2.3006 -1.6010 -2.1191
 1980SOL    HW2 7382   7.109   4.911   9.540 -4.2599 -2.3771 -2.6041
 1981SOL     OW 7383   2.081   3.185   9.601  0.3977  0.5743 -0.3985
 1981SOL    HW1 7384   2.167   3.188   9.641 -0.3809 -0.5973  1.5109
 1981SOL    HW2 7385   2.089   3.120   9.530  0.9956  0.1990  0.0094
 1982SOL     OW 7386   3.662   3.029   7.059  0.2484 -0.5303 -0.1497
 1982SOL    HW1 7387   3.580   3.029   7.108  0.5688  0.1287  0.4007
 1982SOL    HW2 7388   3.688   3.121   7.055  1.0067 -0.7390 -0.2372
 1983SOL     OW 7389   2.782   5.466   2.389  0.0545  0.2773 -0.2399
 1983SOL    HW1 7390   2.781   5.439   2.481 -0.1388  0.7414 -0.1049
 1983SOL    HW2 7391   2.860   5.424   2.353 -0.5578 -0.9529 -0.1866
 1984SOL     OW 7392   1.369   5.849   5.522 -0.0138 -0.6120  0.1465
 1984SOL    HW1 7393   1.425   5.772   5.524  0.3452 -0.3299  1.7398
 1984SOL    HW2 7394   1.383   5.886   5.435  1.4912 -1.1043  0.1567
 1985SOL     OW 7395   2.104   0.890   7.357 -0.0983  0.5153  0.1980
 1985SOL    HW1 7396   2.014   0.865   7.334  0.4361 -0.8763 -0.5639
 1985SOL    HW2 7397   2.136   0.817   7.410  0.5041  1.1244  0.6908
 1986SOL     OW 7398   1.484   6.372   0.772 -0.0254 -0.2981 -0.0447
 1986SOL    HW1 7399   1.407   6.351   0.720  0.4406 -0.9904 -0.4560
 1986SOL    HW2 7400   1.551   6.311   0.743  1.1050  1.1660 -0.6553
 1987SOL     OW 7401   2.626   1.644   0.542  0.3260  0.1449 -0.5465
 1987SOL    HW1 7402   2.721   1.646   0.532  0.3824 -1.7697 -0.7864
 1987SOL    HW2 7403   2.611   1.660   0.635  1.0838 -1.9560 -0.0040
 1988SOL     OW 7404   3.827   5.985   2.172 -0.3056  0.0547 -0.2667
 1988SOL    HW1 7405   3.844   5.892   2.190 -1.9663 -0.5381 -1.4296
 1988SOL    HW2 7406   3.817   6.025   2.258  4.3626  0.1074  0.5024
 1989SOL     OW 7407   6.168   6.919   7.527 -0.0211 -0.1119 -0.2072
 1989SOL    HW1 7408   6.109   6.913   7.452  1.9292 -0.6952 -1.7648
 1989SOL    HW2 7409   6.171   7.012   7.547 -2.1231 -0.1421  0.5125
 1990SOL     OW 7410   6.185   0.762   6.573  0.0759 -0.2265  0.8132
 1990SOL    HW1 7411   6.256   0.826   6.575 -0.4502  0.4260 -0.4944
 1990SOL    HW2 7412   6.106   0.813   6.589 -0.2010 -0.8069  1.3250
 1991SOL     OW 7413   7.339   7.239   0.532  0.4246 -0.5742  0.3157
 1991SOL    HW1 7414   7.377   7.323   0.559 -0.5171 -0.7526  2.3742
 1991SOL    HW2 7415   7.285   7.212   0.607  0.0365 -2.6115 -0.6393
 1992SOL     OW 7416   2.131   7.216   7.876 -0.4084  0.2830  0.5375
 1992SOL    HW1 7417   2.112   7.259   7.793 -1.1230 -1.7287 -0.4229
 1992SOL    HW2 7418   2.221   7.242   7.897 -0.3094  1.0430 -0.7303
 1993SOL     OW 7419   7.491   6.644   4.765  0.1555 -0.3154  0.5185
 1993SOL    HW1 7420   7.461   6.735   4.771 -0.2621 -0.3940 -0.2769
 1993SOL    HW2 7421   7.443   6.599   4.834 -0.3763 -0.1241  0.2797
 1994SOL     OW 7422   3.315   2.127   8.584 -0.2853 -0.0938 -0.4377
 1994SOL    HW1 7423   3.266   2.179   8.521 -2.7125 -1.3635  0.2594
 1994SOL    HW2 7424   3.272   2.042   8.584  0.8767 -0.7574  1.5051
 1995SOL     OW 7425   6.517   2.162  10.239 -0.0033  0.0049  0.0669
 1995SOL    HW1 7426   6.522   2.257  10.229  0.0970  0.2884  2.3084
 1995SOL    HW2 7427   6.424   2.141  10.233 -0.0714  0.3098  0.0682
 1996SOL     OW 7428   0.503   1.311   8.177 -0.4500 -0.0158  0.7629
 1996SOL    HW1 7429   0.503   1.232   8.123 -1.1654 -0.1117  0.8956
 1996SOL    HW2 7430   0.595   1.338   8.179 -0.0660 -1.2640  1.3292
 1997SOL     OW 7431   4.187   2.728  11.574  0.6958 -0.7651  0.3882
 1997SOL    HW1 7432   4.198   2.685  11.489 -0.7347  0.8578 -0.6779
 1997SOL    HW2 7433   4.226   2.814  11.563 -1.8820  0.4874  0.4252
 1998SOL     OW 7434   5.600   6.636   4.243  0.0989 -0.2001  0.2167
 1998SOL    HW1 7435   5.593   6.682   4.159  0.6868  1.0716  0.8321
 1998SOL    HW2 7436   5.526   6.575   4.243  0.0627 -0.1986 -1.1972
 1999SOL     OW 7437   2.304   7.688   9.732 -0.1687  0.0491 -0.6925
 1999SOL    HW1 7438   2.241   7.751   9.698 -0.0942 -0.4606 -1.7950
 1999SOL    HW2 7439   2.266   7.603   9.714  0.5162 -0.2513 -0.7543
 2000SOL     OW 7440   3.573   4.052  12.342  0.9336 -0.6116 -0.3204
 2000SOL    HW1 7441   3.561   4.060  12.437  0.2302 -0.8705 -0.3855
 2000SOL    HW2 7442   3.527   4.128  12.306  1.1223 -0.5640 -0.4619
 2001SOL     OW 7443   6.349   1.172   3.662  0.7156 -0.0915  0.0702
 2001SOL    HW1 7444   6.285   1.174   3.733  0.3666  0.3873 -0.2501
 2001SOL    HW2 7445   6.379   1.081   3.659  0.9377 -0.0519  1.0002
 2002SOL     OW 7446   7.640   4.976   0.030  0.0686 -0.0330 -0.3378
 2002SOL    HW1 7447   7.593   4.895   0.051  0.1100 -0.3677 -1.4647
 2002SOL    HW2 7448   7.572   5.035  -0.004  0.3146 -0.2403 -1.2195
 2003SOL     OW 7449   2.520   2.758  10.049  0.0921 -0.5783 -0.1395
 2003SOL    HW1 7450   2.426   2.755  10.032  0.3931 -0.2916 -2.0621
 2003SOL    HW2 7451   2.540   2.674  10.090 -1.3523  0.2830  2.5870
 2004SOL     OW 7452   6.918   5.026   5.079  0.0516 -0.2474  0.0373
 2004SOL    HW1 7453   6.853   5.039   5.010  1.3525 -2.2282 -1.6895
 2004SOL    HW2 7454   6.866   4.994   5.154 -1.2679  1.0139 -0.2875
 2005SOL     OW 7455   5.003   1.625   2.596 -0.1811 -0.1715 -0.0012
 2005SOL    HW1 7456   5.030   1.628   2.504 -1.0820 -0.0181 -0.2626
 2005SOL    HW2 7457   4.921   1.673   2.599 -0.4126 -0.5979  0.7980
 2006SOL     OW 7458   6.066   1.091   0.235 -0.2611  0.3033  0.3374
 2006SOL    HW1 7459   6.026   1.098   0.322 -0.7735  0.9979  0.0478
 2006SOL    HW2 7460   6.151   1.134   0.245 -0.1284 -0.0159  0.6102
 2007SOL     OW 7461   2.810   2.023   0.092 -0.5386  0.2256  0.0797
 2007SOL    HW1 7462   2.806   2.073   0.174  1.7533  0.4398  0.1306
 2007SOL    HW2 7463   2.825   2.090   0.024  1.5213 -0.2570  0.0177
 2008SOL     OW 7464   3.909   5.696   7.923  0.1713 -1.0104  0.7805
 2008SOL    HW1 7465   3.893   5.749   7.845 -0.2832 -0.8821  0.9577
 2008SOL    HW2 7466   3.986   5.735   7.963  1.5371 -2.1964 -0.5784
 2009SOL     OW 7467   6.793   5.465   9.029 -0.5739  0.0640  0.2353
 2009SOL    HW1 7468   6.706   5.506   9.024 -1.0328 -0.8771  0.3851
 2009SOL    HW2 7469   6.850   5.535   9.063 -0.9927  1.1008 -1.0891
 2010SOL     OW 7470   4.846   2.236   1.485 -0.3228 -0.6167 -0.5972
 2010SOL    HW1 7471   4.778   2.284   1.532  0.7025 -0.3986  0.7309
 2010SOL    HW2 7472   4.878   2.297   1.419 -0.0407  0.0199  0.1134
 2011SOL     OW 7473   7.518   7.169   0.780  0.1879 -0.2277  0.0247
 2011SOL    HW1 7474   7.496   7.121   0.700  1.5105 -0.0638 -0.4584
 2011SOL    HW2 7475   7.504   7.105   0.850  1.0496 -1.0579 -0.5319
 2012SOL     OW 7476   6.241   7.137   9.571  0.7274 -0.1002  0.2848
 2012SOL    HW1 7477   6.152   7.144   9.535  1.2059  0.0756 -0.8889
 2012SOL    HW2 7478   6.297   7.179   9.507  1.7415 -0.7057  0.7402
 2013SOL     OW 7479   6.167   4.881   2.661 -0.4734  0.5677  0.3326
 2013SOL    HW1 7480   6.087   4.901   2.709 -0.2938 -1.3061  1.5406
 2013SOL    HW2 7481   6.140   4.817   2.595 -0.2260  1.0633 -0.2556
 2014SOL     OW 7482   1.095   0.207   2.997 -0.2818 -0.0057  0.2005
 2014SOL    HW1 7483   1.044   0.254   2.932 -0.3723 -0.8094 -0.3323
 2014SOL    HW2 7484   1.182   0.247   2.994 -0.5005  0.4725  0.1504
 2015SOL     OW 7485   4.891   0.432   0.995  0.2279  0.3882  0.4260
 2015SOL    HW1 7486   4.864   0.446   1.086  0.4985  1.0220  0.4180
 2015SOL    HW2 7487   4.840   0.357   0.966 -1.1233  1.2008  0.5938
 2016SOL     OW 7488   0.365   7.547   0.447 -0.1543  0.2908 -0.0093
 2016SOL    HW1 7489   0.330   7.542   0.536  0.5695  0.3840  0.2857
 2016SOL    HW2 7490   0.326   7.472   0.402 -1.5186  0.9527  0.0165
 2017SOL     OW 7491   5.470   5.878   2.470 -0.4918 -0.4946  0.0293
 2017SOL    HW1 7492   5.481   5.804   2.411 -1.8441 -0.2705 -0.5277
 2017SOL    HW2 7493   5.542   5.937   2.448 -0.0352 -1.1479 -0.2613
 2018SOL     OW 7494   6.037   0.352   8.877  0.1239 -0.2866 -0.6157
 2018SOL    HW1 7495   5.953   0.307   8.884  0.1347 -0.2624 -0.2942
 2018SOL    HW2 7496   6.102   0.282   8.869 -0.0265 -0.2831 -2.1313
 2019SOL     OW 7497   1.050   0.049   2.656 -0.3775 -0.1371 -0.9813
 2019SOL    HW1 7498   1.051  -0.039   2.618 -0.8974 -0.7341  0.3250
 2019SOL    HW2 7499   0.962   0.059   2.691  0.0578  0.3986  0.0048
 2020SOL     OW 7500   3.768   6.478   8.426  0.3724 -0.0762 -0.0734
 2020SOL    HW1 7501   3.743   6.390   8.397 -0.8726  0.5797 -1.0563
 2020SOL    HW2 7502   3.702   6.502   8.491  2.4974 -1.0741  2.6579
 2021SOL     OW 7503   1.276   7.012   8.111  0.0077  0.1183  0.0447
 2021SOL    HW1 7504   1.268   6.930   8.159  1.6738 -1.3214 -1.9415
 2021SOL    HW2 7505   1.187   7.047   8.106 -1.1665 -2.7949 -1.0449
 2022SOL     OW 7506   5.560   3.699   4.345  0.0470  0.3346 -0.0986
 2022SOL    HW1 7507   5.531   3.774   4.396 -1.6446  0.9649 -1.8689
 2022SOL    HW2 7508   5.631   3.732   4.291 -0.6483  0.6694 -0.8240
 2023SOL     OW 7509   5.407   6.634   2.651  0.1685  0.1915  0.4836
 2023SOL    HW1 7510   5.462   6.556   2.658 -0.0466  0.0397  0.5023
 2023SOL    HW2 7511   5.334   6.607   2.596  1.1558  0.9873 -1.3184
 2024SOL     OW 7512   1.427   3.934   2.294  0.3546 -0.1941 -0.3534
 2024SOL    HW1 7513   1.352   3.877   2.310  0.6010 -0.5178 -0.3475
 2024SOL    HW2 7514   1.488   3.914   2.365  0.3055  0.3094 -0.1688
 2025SOL     OW 7515   5.757   7.830   4.287  0.0654  0.2502 -0.1584
 2025SOL    HW1 7516   5.829   7.791   4.336  0.0718  1.8566  1.1998
 2025SOL    HW2 7517   5.799   7.892   4.228 -0.1453  0.6148  0.0716
 2026SOL     OW 7518   0.091   2.285   4.222  0.1234 -0.5239 -0.0861
 2026SOL    HW1 7519   0.059   2.325   4.141  0.8116  0.6299  0.1897
 2026SOL    HW2 7520   0.148   2.351   4.261 -0.1156 -1.0972  1.3015
 2027SOL     OW 7521   6.845   5.593   3.244 -0.1064  0.2541  0.6974
 2027SOL    HW1 7522   6.765   5.645   3.256 -0.9294 -0.7219 -0.3299
 2027SOL    HW2 7523   6.816   5.502   3.250  0.6239 -0.1619 -1.2252
 2028SOL     OW 7524   7.676   4.759   2.696 -0.4023 -0.3511  0.7154
 2028SOL    HW1 7525   7.614   4.742   2.768  0.0518  1.8509  1.6991
 2028SOL    HW2 7526   7.622   4.788   2.623 -0.7133 -0.9361  0.7036
 2029SOL     OW 7527   3.017   5.720   7.758  0.1972 -0.2497  0.6034
 2029SOL    HW1 7528   3.012   5.651   7.824  1.1776 -1.1062 -0.1847
 2029SOL    HW2 7529   3.088   5.693   7.700  0.7450  1.5328  0.3821
 2030SOL     OW 7530   7.647   0.962  10.516 -0.1053  0.4765 -0.2834
 2030SOL    HW1 7531   7.579   1.021  10.484  1.9477  1.7803 -2.5037
 2030SOL    HW2 7532   7.700   0.941  10.439  1.6792 -0.9824  1.2296
 2031SOL     OW 7533   3.292   2.810   9.800  0.2632 -1.1295  0.2258
 2031SOL    HW1 7534   3.375   2.775   9.769 -0.1756 -2.4294  0.4299
 2031SOL    HW2 7535   3.295   2.903   9.779  1.3772 -1.3342 -0.5957
 2032SOL     OW 7536   3.756   1.676   2.682  0.7188 -0.2279  0.3369
 2032SOL    HW1 7537   3.691   1.732   2.640  0.3762 -0.5815  0.3919
 2032SOL    HW2 7538   3.821   1.660   2.613  0.1935 -0.7514 -0.0516
 2033SOL     OW 7539   6.016   2.941   5.372 -0.2206 -0.1672 -0.3925
 2033SOL    HW1 7540   6.106   2.974   5.377 -0.1867 -0.4072  0.9588
 2033SOL    HW2 7541   6.019   2.857   5.417 -0.9034 -0.7233 -1.3377
 2034SOL     OW 7542   3.561   1.846   7.949  0.5095  0.6198 -0.5036
 2034SOL    HW1 7543   3.547   1.935   7.983  0.8511  0.3288  0.4249
 2034SOL    HW2 7544   3.604   1.799   8.021  0.0239 -0.3949 -0.8578
 2035SOL     OW 7545   0.820   5.970   9.980 -0.1235 -0.4235 -0.4813
 2035SOL    HW1 7546   0.812   5.903   9.912  1.1042  1.1446 -2.2798
 2035SOL    HW2 7547   0.743   6.026   9.967 -0.3351 -0.5892  0.0114
 2036SOL     OW 7548   6.482   6.276   6.071  0.0839 -0.2834 -0.5610
 2036SOL    HW1 7549   6.523   6.314   5.993  0.5715  4.0298  1.4881
 2036SOL    HW2 7550   6.400   6.326   6.080 -0.6362 -1.6797  0.9442
 2037SOL     OW 7551   5.531   3.438   5.207  0.5137 -0.4549  0.1980
 2037SOL    HW1 7552   5.518   3.356   5.256 -1.6720  0.8216  1.9258
 2037SOL    HW2 7553   5.590   3.490   5.261  1.1517 -0.4874 -0.4445
 2038SOL     OW 7554   6.775   5.009   7.865  0.1399 -0.2879 -0.1028
 2038SOL    HW1 7555   6.815   4.944   7.923 -0.7468  0.2911  1.2069
 2038SOL    HW2 7556   6.837   5.017   7.792  1.3456 -0.9718  0.8045
 2039SOL     OW 7557   1.966   7.332   4.373 -0.1496  0.1517 -0.0350
 2039SOL    HW1 7558   2.034   7.291   4.320  0.7140 -0.2476  1.3227
 2039SOL    HW2 7559   2.003   7.334   4.462 -1.1595  1.6554  0.3848
 2040SOL     OW 7560   4.862   6.254   5.446  1.1190  0.3198  0.5082
 2040SOL    HW1 7561   4.916   6.306   5.387  1.1045 -0.3410 -0.1045
 2040SOL    HW2 7562   4.884   6.163   5.425 -0.6802 -0.0065 -0.2202
 2041SOL     OW 7563   1.173   4.099   8.815 -0.1681  0.4834 -0.0377
 2041SOL    HW1 7564   1.128   4.116   8.897 -3.1004  1.0125 -1.6220
 2041SOL    HW2 7565   1.149   4.009   8.792  1.2466  0.0660 -0.0242
 2042SOL     OW 7566   5.989   0.841   0.499  0.1716  0.3134 -0.2444
 2042SOL    HW1 7567   5.988   0.932   0.469  1.3323  0.1032 -0.9762
 2042SOL    HW2 7568   6.053   0.840   0.570  0.6861 -0.0618 -0.7052
 2043SOL     OW 7569   7.272   1.247   7.866  0.3515  0.0016 -0.6383
 2043SOL    HW1 7570   7.310   1.164   7.893  0.1060  0.3851  1.0205
 2043SOL    HW2 7571   7.347   1.299   7.836  0.7273 -0.2990 -0.2413
 2044SOL     OW 7572   2.431   5.277   0.061  0.3532  0.2583  0.4605
 2044SOL    HW1 7573   2.511   5.224   0.072 -0.5468 -2.2293 -3.0754
 2044SOL    HW2 7574   2.463   5.362   0.031  1.7852 -0.7444 -1.0734
 2045SOL     OW 7575   2.939   5.037  12.149 -0.5263 -0.0714  0.9299
 2045SOL    HW1 7576   2.879   4.969  12.119  1.5746 -1.3213 -0.7505
 2045SOL    HW2 7577   2.988   4.997  12.220  1.4431 -0.8341 -0.7412
 2046SOL     OW 7578   4.678   3.791   9.405  0.0461  0.0605 -0.4914
 2046SOL    HW1 7579   4.748   3.850   9.379 -0.8728  0.3111 -2.5918
 2046SOL    HW2 7580   4.689   3.781   9.500  3.1657 -0.3029 -0.7959
 2047SOL     OW 7581   5.669   7.307  10.851  0.3853  0.4553 -0.3170
 2047SOL    HW1 7582   5.711   7.387  10.883  2.1080 -1.2156  1.9072
 2047SOL    HW2 7583   5.670   7.248  10.925 -0.2920 -1.8571 -2.0411
 2048SOL     OW 7584   0.914   1.631   3.129 -0.2697 -1.1841  0.1830
 2048SOL    HW1 7585   0.830   1.621   3.084 -0.5498  0.5947  0.1986
 2048SOL    HW2 7586   0.944   1.542   3.146 -1.3128 -1.8659 -1.3726
 2049SOL     OW 7587   3.971   2.740   6.946  0.2454  0.4601 -0.2576
 2049SOL    HW1 7588   4.032   2.685   6.996 -1.1210  0.9155  2.0773
 2049SOL    HW2 7589   3.898   2.681   6.925 -0.9139  1.1240  1.6655
 2050SOL     OW 7590   5.496   4.525   6.466 -0.3907  0.1644  0.0664
 2050SOL    HW1 7591   5.426   4.461   6.451 -0.1594  0.0055 -0.3579
 2050SOL    HW2 7592   5.480   4.594   6.401 -0.5077  0.4241  0.3733
 2051SOL     OW 7593   7.486   3.831   3.558  0.0255 -0.0947 -0.4658
 2051SOL    HW1 7594   7.487   3.758   3.496  0.3990 -0.6350  0.1637
 2051SOL    HW2 7595   7.566   3.880   3.537 -0.8734  0.8932 -1.7487
 2052SOL     OW 7596   3.203   4.784   8.351 -0.5833 -0.4080 -0.0714
 2052SOL    HW1 7597   3.215   4.863   8.297  1.7806 -0.3633  0.4157
 2052SOL    HW2 7598   3.274   4.726   8.324  0.0142 -0.8245  2.2289
 2053SOL     OW 7599   6.530   3.473   9.526 -0.2886  0.6701 -0.4855
 2053SOL    HW1 7600   6.450   3.522   9.504 -0.5829  1.0503  1.2375
 2053SOL    HW2 7601   6.601   3.535   9.508 -0.5723  1.2717  0.3828
 2054SOL     OW 7602   1.781   0.038   7.121  0.4312  0.4052  0.0201
 2054SOL    HW1 7603   1.800  -0.056   7.125  2.9024  0.8181 -0.1765
 2054SOL    HW2 7604   1.764   0.062   7.212 -0.2636 -0.2323  0.0687
 2055SOL     OW 7605   2.624   0.770   0.077  0.0184 -0.0593  0.8064
 2055SOL    HW1 7606   2.715   0.801   0.080  0.0782 -0.1799  0.2981
 2055SOL    HW2 7607   2.618   0.708   0.150  0.2693  0.1418  1.0044
 2056SOL     OW 7608   6.678   7.635   4.744  0.2994  0.1385 -0.3151
 2056SOL    HW1 7609   6.663   7.639   4.650  2.4134 -0.3837 -0.7207
 2056SOL    HW2 7610   6.601   7.590   4.779 -0.0831 -0.5030 -1.9046
 2057SOL     OW 7611   2.753   3.973   2.272  0.5561  0.1003 -0.1744
 2057SOL    HW1 7612   2.840   4.013   2.273  0.9476 -0.7095  1.2118
 2057SOL    HW2 7613   2.694   4.043   2.245  1.6998  0.4909 -1.8275
 2058SOL     OW 7614   7.332   5.124  10.386  0.2335 -0.7687 -0.3198
 2058SOL    HW1 7615   7.414   5.173  10.394 -0.4565  0.1830  1.1926
 2058SOL    HW2 7616   7.295   5.153  10.303  0.6293  0.0227 -0.2239
 2059SOL     OW 7617   3.479   2.090   0.421 -0.0679 -0.0762 -0.1093
 2059SOL    HW1 7618   3.575   2.087   0.419  0.0129  1.2627  0.7217
 2059SOL    HW2 7619   3.457   2.170   0.373 -0.6604  0.5704  1.1953
 2060SOL     OW 7620   7.745   7.199   8.762  0.5874 -0.0081 -0.1891
 2060SOL    HW1 7621   7.695   7.272   8.724 -0.4535  0.2054  1.4905
 2060SOL    HW2 7622   7.699   7.120   8.733  1.2974 -0.0013 -1.4169
 2061SOL     OW 7623   3.486   5.814   1.229 -0.4464  0.2374  0.7633
 2061SOL    HW1 7624   3.489   5.902   1.267  0.6477  0.2102  0.7925
 2061SOL    HW2 7625   3.453   5.827   1.140 -0.0636  0.7186  0.6834
 2062SOL     OW 7626   5.951   5.872   1.432 -0.1982 -0.1264  0.6376
 2062SOL    HW1 7627   5.901   5.800   1.469  0.5731 -0.5269  0.9289
 2062SOL    HW2 7628   6.039   5.861   1.468  0.8642 -1.0537 -1.9495
 2063SOL     OW 7629   1.489   4.037   6.436  0.1476  0.2342  0.3293
 2063SOL    HW1 7630   1.556   3.999   6.493 -0.0644  1.1806  1.2280
 2063SOL    HW2 7631   1.509   4.131   6.435 -1.5446  0.6337  1.1397
 2064SOL     OW 7632   0.636   1.429   8.723 -0.1205 -0.2736 -0.2815
 2064SOL    HW1 7633   0.581   1.470   8.656 -0.7702 -1.3874 -0.4615
 2064SOL    HW2 7634   0.574   1.401   8.791  0.5059  0.6611  0.7163
 2065SOL     OW 7635   6.254   6.399   0.593  0.1795  0.4415  0.0209
 2065SOL    HW1 7636   6.275   6.317   0.548 -0.5586 -0.0754  0.6091
 2065SOL    HW2 7637   6.166   6.387   0.627 -0.6020  2.0962 -1.2604
 2066SOL     OW 7638   1.981   4.445   6.576  0.7335  0.0526  0.2999
 2066SOL    HW1 7639   1.931   4.383   6.629  0.3378  0.2378  0.1460
 2066SOL    HW2 7640   2.022   4.392   6.508 -1.4499  0.2194 -1.2543
 2067SOL     OW 7641   5.299   7.459   6.739  0.2709  0.0414 -0.2247
 2067SOL    HW1 7642   5.395   7.454   6.738  0.3279  0.3311  1.3525
 2067SOL    HW2 7643   5.280   7.553   6.736  0.0688  0.0231  0.4007
 2068SOL     OW 7644   3.862   5.743   0.983 -0.3952 -0.4670 -0.0809
 2068SOL    HW1 7645   3.830   5.832   0.970 -0.2243 -0.4168 -0.1625
 2068SOL    HW2 7646   3.957   5.751   0.979 -0.3877 -0.7215 -0.5297
 2069SOL     OW 7647   2.164   4.849   9.865 -0.7370  0.4224 -0.0225
 2069SOL    HW1 7648   2.089   4.876   9.918 -1.9848 -2.0510 -0.3413
 2069SOL    HW2 7649   2.238   4.846   9.925 -1.5448  0.1976  0.9789
 2070SOL     OW 7650   3.425   5.326   7.030 -0.6424 -0.4657  0.2081
 2070SOL    HW1 7651   3.489   5.392   7.002 -0.5627 -0.6671 -0.0836
 2070SOL    HW2 7652   3.458   5.297   7.116 -0.2515 -0.6852 -0.0148
 2071SOL     OW 7653   1.748   1.190   6.815  0.1665 -0.4632  0.2677
 2071SOL    HW1 7654   1.830   1.163   6.856 -0.3017 -2.0518  0.2031
 2071SOL    HW2 7655   1.764   1.181   6.721 -0.1450 -1.0016  0.2625
 2072SOL     OW 7656   5.131   2.289   3.240  0.4106 -0.0818 -0.2277
 2072SOL    HW1 7657   5.084   2.369   3.262  1.2222  0.2442  0.3746
 2072SOL    HW2 7658   5.086   2.255   3.162 -1.5672 -0.4277  0.9723
 2073SOL     OW 7659   7.120   2.877  10.932  0.2071 -0.2909 -0.3665
 2073SOL    HW1 7660   7.070   2.823  10.993  1.1423 -2.4356 -1.3980
 2073SOL    HW2 7661   7.060   2.948  10.908 -1.1369 -0.9428  0.9033
 2074SOL     OW 7662   4.350   2.427   5.310  0.1146 -0.0545 -0.3491
 2074SOL    HW1 7663   4.258   2.399   5.311  0.1790 -0.2555  0.2183
 2074SOL    HW2 7664   4.352   2.499   5.247 -0.5777  0.4470  0.1938
 2075SOL     OW 7665   4.363   0.758   1.169  0.1204 -0.2991 -0.4569
 2075SOL    HW1 7666   4.421   0.833   1.187 -0.7622  0.3059 -0.0404
 2075SOL    HW2 7667   4.327   0.736   1.255  0.5413 -1.3615 -0.5423
 2076SOL     OW 7668   7.573   6.279   3.685  0.2368  0.1245 -0.0730
 2076SOL    HW1 7669   7.488   6.298   3.724  0.0423 -0.3891 -0.2396
 2076SOL    HW2 7670   7.618   6.363   3.682  0.1248  0.2243  0.9504
 2077SOL     OW 7671   3.442   3.670   2.094  0.2201  0.0051 -0.2865
 2077SOL    HW1 7672   3.479   3.753   2.064  1.4199 -1.2530 -2.5595
 2077SOL    HW2 7673   3.499   3.603   2.054 -0.8247 -1.9206  1.2890
 2078SOL     OW 7674   0.515   4.138   9.966 -0.3998  0.0213 -0.7822
 2078SOL    HW1 7675   0.484   4.147  10.056  1.3891  1.9662 -0.2650
 2078SOL    HW2 7676   0.605   4.106   9.975 -0.6048 -0.9496 -1.9625
 2079SOL     OW 7677   3.182   0.921   1.901  0.3629  0.0782 -0.8096
 2079SOL    HW1 7678   3.150   0.985   1.964 -0.2379 -0.6091 -0.3945
 2079SOL    HW2 7679   3.255   0.878   1.946 -1.0677 -1.5410  0.1466
 2080SOL     OW 7680   6.402   1.404   4.617 -0.1141  0.6880  0.0462
 2080SOL    HW1 7681   6.377   1.345   4.545  1.0800  1.2039 -0.8267
 2080SOL    HW2 7682   6.455   1.349   4.675  1.1015  0.8841 -0.8296
 2081SOL     OW 7683   7.834   6.164   5.076 -0.1639  0.3021  0.1039
 2081SOL    HW1 7684   7.784   6.125   5.148 -0.7589 -0.7434 -0.8508
 2081SOL    HW2 7685   7.768   6.183   5.009  0.5385  0.1352 -0.6508
 2082SOL     OW 7686   4.184   1.459   0.010 -0.0726 -0.2924  0.4608
 2082SOL    HW1 7687   4.220   1.381   0.052 -1.0974 -0.6045  0.7744
 2082SOL    HW2 7688   4.206   1.449  -0.083  1.7826  0.1662  0.7892
 2083SOL     OW 7689   1.721   0.801   6.621  0.2650  0.5057 -0.0782
 2083SOL    HW1 7690   1.787   0.769   6.681 -1.2992  0.3403  1.6528
 2083SOL    HW2 7691   1.715   0.734   6.553  1.4836  0.2789  0.0316
 2084SOL     OW 7692   4.762   3.482   5.092  0.2372 -0.0619  0.2822
 2084SOL    HW1 7693   4.730   3.407   5.041  1.0310 -0.2618  0.0633
 2084SOL    HW2 7694   4.704   3.554   5.067  0.4221 -0.2292 -0.7000
 2085SOL     OW 7695   3.703   6.187   7.379  0.3050 -0.1928  0.0176
 2085SOL    HW1 7696   3.674   6.110   7.428  0.1848 -0.4285 -0.4156
 2085SOL    HW2 7697   3.651   6.259   7.414  1.1140 -0.1133  1.1221
 2086SOL     OW 7698   4.041   5.575   3.694 -0.1233 -0.3049 -0.4536
 2086SOL    HW1 7699   3.962   5.593   3.644  0.7419 -0.6192 -1.9937
 2086SOL    HW2 7700   4.051   5.480   3.691 -0.1751 -0.3556  0.5417
 2087SOL     OW 7701   2.506   2.662   8.437  0.2433  0.2553  0.0679
 2087SOL    HW1 7702   2.457   2.621   8.365 -0.4773 -0.3928  0.9060
 2087SOL    HW2 7703   2.458   2.742   8.457  1.2082  1.1545 -1.0438
 2088SOL     OW 7704   3.361   6.151   7.337  0.4095 -0.2556  0.4687
 2088SOL    HW1 7705   3.311   6.071   7.322 -1.2272  0.7719  0.2456
 2088SOL    HW2 7706   3.427   6.150   7.267 -1.9536  0.3830 -1.9408
 2089SOL     OW 7707   5.398   2.505  10.759 -0.0509  0.0611 -0.2362
 2089SOL    HW1 7708   5.442   2.583  10.790 -0.5681 -0.0070  0.7100
 2089SOL    HW2 7709   5.322   2.538  10.711  0.8146  0.1685 -1.5863
 2090SOL     OW 7710   5.476   2.638  11.709  0.2524  0.5612  0.1044
 2090SOL    HW1 7711   5.525   2.677  11.781  1.4294  0.0946 -0.4153
 2090SOL    HW2 7712   5.504   2.687  11.632 -0.3924  0.5334 -0.1521
 2091SOL     OW 7713   6.695   2.113   3.741 -0.2844  0.0326 -0.7408
 2091SOL    HW1 7714   6.741   2.172   3.801 -1.4990  1.7495 -1.3928
 2091SOL    HW2 7715   6.653   2.049   3.798  0.0116  0.5758  0.1222
 2092SOL     OW 7716   0.236   1.216  10.128  0.3169 -0.0074  0.2015
 2092SOL    HW1 7717   0.173   1.163  10.177 -1.3205  1.8633  0.2526
 2092SOL    HW2 7718   0.311   1.226  10.187 -0.2302 -0.5417  1.0030
 2093SOL     OW 7719   5.622   5.801   1.509 -0.0168 -0.0292  0.3243
 2093SOL    HW1 7720   5.577   5.884   1.520 -2.0536 -1.0729  0.3268
 2093SOL    HW2 7721   5.685   5.798   1.581 -1.0533  0.8088  1.2927
 2094SOL     OW 7722   4.067   0.272   0.868 -1.0040  0.5839  0.2110
 2094SOL    HW1 7723   4.005   0.266   0.795 -1.2753 -1.1871  0.5580
 2094SOL    HW2 7724   4.053   0.193   0.919  0.3161  1.0100  1.3056
 2095SOL     OW 7725   5.956   0.074   6.166 -0.4971 -1.1189 -0.0805
 2095SOL    HW1 7726   5.898  -0.001   6.154 -1.5981 -0.5134  1.1673
 2095SOL    HW2 7727   5.922   0.141   6.107 -0.9331 -0.8357  0.4914
 2096SOL     OW 7728   0.827   0.741   3.507  0.0875  0.0929  0.0044
 2096SOL    HW1 7729   0.806   0.831   3.531  0.0542  0.3543 -0.9847
 2096SOL    HW2 7730   0.743   0.703   3.480  0.4520  0.4352 -1.6949
 2097SOL     OW 7731   4.254   6.147   8.094  0.2823  0.7142 -0.2635
 2097SOL    HW1 7732   4.219   6.139   8.183  1.6703  0.2053  0.2773
 2097SOL    HW2 7733   4.266   6.241   8.081 -0.5067  0.8329 -0.1516
 2098SOL     OW 7734   7.634   4.073   2.909  0.1590 -0.3442 -0.3144
 2098SOL    HW1 7735   7.625   4.099   3.000 -1.1764 -0.3937 -0.4202
 2098SOL    HW2 7736   7.565   4.120   2.863 -0.5754 -1.9709 -0.9415
 2099SOL     OW 7737   0.375   2.968   8.325  0.0071 -0.4009  0.1609
 2099SOL    HW1 7738   0.338   2.950   8.412  1.2007 -0.0426  0.7505
 2099SOL    HW2 7739   0.377   2.882   8.282  1.6195 -1.0028  1.3717
 2100SOL     OW 7740   5.925   6.214   6.134  0.3120 -0.2093 -0.1314
 2100SOL    HW1 7741   5.837   6.228   6.097 -0.0584 -1.5658  0.2038
 2100SOL    HW2 7742   5.923   6.262   6.217 -0.1350 -0.2815 -0.0946
 2101SOL     OW 7743   2.137   1.425   9.044 -0.2951  0.1874 -0.2434
 2101SOL    HW1 7744   2.174   1.441   9.131 -0.4763  0.8201 -0.2810
 2101SOL    HW2 7745   2.051   1.466   9.046 -1.6894 -2.4902  0.3314
 2102SOL     OW 7746   7.643   5.894   5.916 -0.1622  0.9035 -0.1425
 2102SOL    HW1 7747   7.647   5.805   5.950 -2.0937  0.2112 -1.4972
 2102SOL    HW2 7748   7.717   5.901   5.857  0.0342  0.2010  0.0117
 2103SOL     OW 7749   0.378   5.240   3.996  0.0760 -0.2800 -0.1721
 2103SOL    HW1 7750   0.467   5.219   4.026  0.9349  1.4917 -1.3115
 2103SOL    HW2 7751   0.370   5.196   3.912  0.3170  0.4751 -0.5991
 2104SOL     OW 7752   5.384   5.720   2.694 -0.1106 -0.2021 -0.4001
 2104SOL    HW1 7753   5.289   5.736   2.693 -0.1691 -0.5492 -1.4313
 2104SOL    HW2 7754   5.421   5.793   2.645  0.3360  0.8234  1.3702
 2105SOL     OW 7755   2.272   4.866  11.601  0.2339  0.1985 -0.1214
 2105SOL    HW1 7756   2.288   4.894  11.691 -2.0007  0.6896  0.1851
 2105SOL    HW2 7757   2.225   4.783  11.609 -1.6350  1.1371 -0.7151
 2106SOL     OW 7758   7.602   1.245   9.529  0.2297 -0.5764 -0.1100
 2106SOL    HW1 7759   7.595   1.307   9.601 -0.0677 -0.1151 -0.5337
 2106SOL    HW2 7760   7.689   1.260   9.493  0.0014 -0.1223 -0.4708
 2107SOL     OW 7761   4.879   4.488   8.786  0.2914  0.1498 -0.0155
 2107SOL    HW1 7762   4.821   4.559   8.757 -0.7692 -0.9750 -0.7475
 2107SOL    HW2 7763   4.919   4.456   8.705  1.5660  0.5707  0.4298
 2108SOL     OW 7764   1.314   0.016  10.125  0.2392  0.6622 -0.4439
 2108SOL    HW1 7765   1.279  -0.024  10.205 -0.3034  0.5995 -0.7030
 2108SOL    HW2 7766   1.268  -0.029  10.054  0.8606  0.5810 -0.8004
 2109SOL     OW 7767   4.778   7.349  11.790  0.5848 -0.2377 -0.4292
 2109SOL    HW1 7768   4.822   7.361  11.874 -1.0137  0.4879  0.3535
 2109SOL    HW2 7769   4.784   7.435  11.748 -0.1534 -0.0877 -0.2524
 2110SOL     OW 7770   4.617   4.627   1.953  0.1308  0.0223  0.5107
 2110SOL    HW1 7771   4.689   4.575   1.989 -1.1878 -1.9052  0.5081
 2110SOL    HW2 7772   4.565   4.651   2.030  0.1772  0.4816  0.4009
 2111SOL     OW 7773   0.159   4.052   6.511  0.5023 -0.0066 -0.1405
 2111SOL    HW1 7774   0.158   4.123   6.577  0.3902  1.5858 -1.7731
 2111SOL    HW2 7775   0.086   3.996   6.535  1.9254 -0.9176  2.5353
 2112SOL     OW 7776   2.642   6.994   6.792  0.0655 -0.2236 -0.7091
 2112SOL    HW1 7777   2.613   6.975   6.881  0.9015  0.9294 -0.1745
 2112SOL    HW2 7778   2.588   6.936   6.737 -0.6856 -0.7204  0.5024
 2113SOL     OW 7779   1.394   1.866   1.859  0.6750  0.0394  0.7131
 2113SOL    HW1 7780   1.401   1.961   1.868  2.0576 -0.0539  0.8216
 2113SOL    HW2 7781   1.482   1.834   1.878 -0.2198 -1.4347  2.6902
 2114SOL     OW 7782   5.410   3.230   7.935 -0.3694 -0.1961 -0.0271
 2114SOL    HW1 7783   5.338   3.257   7.878 -0.4169 -0.5802 -0.1557
 2114SOL    HW2 7784   5.412   3.296   8.004  0.2066  0.7216 -0.9013
 2115SOL     OW 7785   1.497   0.203   0.076  0.0981  0.4228 -0.0251
 2115SOL    HW1 7786   1.487   0.117   0.116  0.5602  1.0159  1.4136
 2115SOL    HW2 7787   1.529   0.184  -0.013 -0.0822 -0.8831  0.1700
 2116SOL     OW 7788   4.227   3.829   0.863  0.5824  0.2049  0.0594
 2116SOL    HW1 7789   4.244   3.735   0.866  1.4496  0.2988 -1.2197
 2116SOL    HW2 7790   4.141   3.839   0.904  0.1572 -1.2121 -0.4243
 2117SOL     OW 7791   3.028   1.355   3.058 -0.4888 -0.4403  0.6862
 2117SOL    HW1 7792   3.000   1.297   3.129 -1.9158  1.1504  1.5064
 2117SOL    HW2 7793   2.946   1.387   3.020  0.1714 -2.3393 -2.7195
 2118SOL     OW 7794   3.337   5.102   1.634 -0.0007  0.0500 -0.0268
 2118SOL    HW1 7795   3.411   5.053   1.598  0.0684  1.2720 -1.6642
 2118SOL    HW2 7796   3.284   5.035   1.679  1.5262 -1.0096  0.2763
 2119SOL     OW 7797   3.098   5.962   8.718  0.7409  0.0450  0.2346
 2119SOL    HW1 7798   3.155   5.936   8.646  0.4205 -0.3143  0.1015
 2119SOL    HW2 7799   3.141   5.929   8.797  0.6302 -0.3744  0.1198
 2120SOL     OW 7800   4.070   6.218   6.540 -0.0775 -0.3732 -0.2381
 2120SOL    HW1 7801   4.049   6.298   6.493 -1.6933 -1.5112 -1.5802
 2120SOL    HW2 7802   4.108   6.248   6.623 -1.2113  1.7763 -0.4264
 2121SOL     OW 7803   1.535   1.893   7.909  0.2117 -0.0208 -0.3673
 2121SOL    HW1 7804   1.557   1.881   7.816  1.8507 -2.1291  0.2073
 2121SOL    HW2 7805   1.618   1.919   7.950  0.0591 -1.2814  0.8187
 2122SOL     OW 7806   1.176   6.392   4.275 -0.3656  0.7036 -0.0910
 2122SOL    HW1 7807   1.266   6.365   4.294  1.0548  1.9010 -4.0566
 2122SOL    HW2 7808   1.182   6.487   4.263 -1.7312  0.6139 -1.9434
 2123SOL     OW 7809   6.252   3.762   1.553 -0.3613 -0.6204 -0.6312
 2123SOL    HW1 7810   6.178   3.754   1.493 -0.9228 -1.2982  0.1368
 2123SOL    HW2 7811   6.313   3.694   1.526 -0.9396 -1.4052  0.0085
 2124SOL     OW 7812   4.645   1.928   1.832 -0.5497  0.1282 -0.3577
 2124SOL    HW1 7813   4.624   1.947   1.923 -0.1483 -1.7644  0.1681
 2124SOL    HW2 7814   4.724   1.874   1.836 -1.6953 -1.7788 -1.6696
 2125SOL     OW 7815   2.696   7.741   3.551  0.5646 -0.0983  0.4154
 2125SOL    HW1 7816   2.685   7.832   3.520 -1.8195 -0.7778 -1.0533
 2125SOL    HW2 7817   2.607   7.705   3.549  1.7500 -3.4174 -2.2706
 2126SOL     OW 7818   7.911   2.015   7.774 -0.2703 -0.1643 -0.6544
 2126SOL    HW1 7819   7.953   2.095   7.742 -0.1625  1.0444  2.1414
 2126SOL    HW2 7820   7.937   1.947   7.713  1.6281  1.5074 -1.8136
 2127SOL     OW 7821   6.540   2.727   0.133  0.5120 -0.2109 -0.3066
 2127SOL    HW1 7822   6.530   2.822   0.132  0.9224 -0.1679 -0.4872
 2127SOL    HW2 7823   6.496   2.699   0.214 -1.4477 -0.0844 -1.2720
 2128SOL     OW 7824   3.371   7.093   4.276 -0.2988 -0.0063  0.0473
 2128SOL    HW1 7825   3.377   7.154   4.350 -1.7961 -0.1896  0.3388
 2128SOL    HW2 7826   3.363   7.007   4.316 -1.8769 -0.0410 -0.2831
 2129SOL     OW 7827   5.906   7.932  11.712  0.2389 -0.0772  0.1735
 2129SOL    HW1 7828   5.864   7.997  11.768 -0.2946 -1.1775  1.0980
 2129SOL    HW2 7829   5.903   7.970  11.624 -2.7910 -0.0996  0.1662
 2130SOL     OW 7830   0.547   2.363   0.985  0.1008 -0.6137 -0.4248
 2130SOL    HW1 7831   0.507   2.298   1.043 -1.4616 -0.7198 -1.5608
 2130SOL    HW2 7832   0.567   2.314   0.905 -2.0909  0.4339 -1.7132
 2131SOL     OW 7833   2.746   3.558   5.966 -0.4986 -0.2557 -0.5119
 2131SOL    HW1 7834   2.703   3.532   6.047 -0.4582 -0.3193 -0.5106
 2131SOL    HW2 7835   2.836   3.578   5.991 -0.0724 -1.7413 -0.7870
 2132SOL     OW 7836   0.360   3.486   2.240 -0.0133  0.3403  0.3452
 2132SOL    HW1 7837   0.387   3.440   2.320 -0.2116  0.6328  0.5820
 2132SOL    HW2 7838   0.419   3.453   2.172  1.8483  1.8921  1.0959
 2133SOL     OW 7839   1.490   5.460   8.167  0.0448 -0.1311 -0.1010
 2133SOL    HW1 7840   1.572   5.509   8.166  1.0828 -1.7528 -1.0941
 2133SOL    HW2 7841   1.452   5.474   8.080 -1.6682  1.9778  0.9047
 2134SOL     OW 7842   3.383   4.064   1.183  0.3931  0.1182 -0.2052
 2134SOL    HW1 7843   3.310   4.112   1.145 -0.4688 -1.6916 -0.9032
 2134SOL    HW2 7844   3.349   4.028   1.264  0.5420 -0.6225 -0.4664
 2135SOL     OW 7845   1.462   5.002   2.069 -0.1272  0.0517 -0.3242
 2135SOL    HW1 7846   1.368   4.996   2.051  0.1403  0.6745 -2.2351
 2135SOL    HW2 7847   1.481   5.095   2.063  1.0330 -0.2515 -2.8226
 2136SOL     OW 7848   7.401   7.596   2.889 -0.0528  0.0053  0.0121
 2136SOL    HW1 7849   7.391   7.604   2.794  0.9950 -0.5557 -0.1748
 2136SOL    HW2 7850   7.351   7.517   2.912 -0.2379  0.0929 -0.0901
 2137SOL     OW 7851   4.390   5.550  10.524 -0.4349  0.5169  0.0353
 2137SOL    HW1 7852   4.407   5.609  10.450 -0.6616  1.5317  0.7691
 2137SOL    HW2 7853   4.311   5.586  10.564  0.2543  0.5869  1.3710
 2138SOL     OW 7854   2.624   2.237   2.205  0.3732 -0.5759 -0.1820
 2138SOL    HW1 7855   2.675   2.254   2.284 -0.5137  0.2013  0.2509
 2138SOL    HW2 7856   2.534   2.227   2.237  0.1807 -1.4631 -0.9700
 2139SOL     OW 7857   3.448   4.800   5.789  0.2038  0.6584 -0.4608
 2139SOL    HW1 7858   3.531   4.844   5.804  0.1807  0.4804  0.2197
 2139SOL    HW2 7859   3.445   4.730   5.854  0.8251 -1.2016 -2.3447
 2140SOL     OW 7860   1.308   7.478   3.542  0.0189  0.4677  0.2258
 2140SOL    HW1 7861   1.213   7.475   3.527 -0.1614 -0.3053  1.4243
 2140SOL    HW2 7862   1.330   7.391   3.573  1.6278 -0.2892 -2.6624
 2141SOL     OW 7863   5.505   6.464   6.710 -0.1753  0.1334 -0.1161
 2141SOL    HW1 7864   5.439   6.529   6.731  0.8594  1.1209  0.1888
 2141SOL    HW2 7865   5.468   6.415   6.637 -1.8937 -0.3865  1.0625
 2142SOL     OW 7866   6.525   1.631   1.506  0.2202 -0.2925  0.0783
 2142SOL    HW1 7867   6.572   1.559   1.464 -0.0262 -1.1612  1.2450
 2142SOL    HW2 7868   6.436   1.626   1.470  0.4237 -0.0214 -0.4784
 2143SOL     OW 7869   0.069   4.628   1.581  0.0054 -0.1714  0.0201
 2143SOL    HW1 7870   0.156   4.657   1.551 -0.5411  0.0908 -1.3835
 2143SOL    HW2 7871   0.015   4.706   1.577 -0.3785 -0.4051  0.5962
 2144SOL     OW 7872   7.566   1.980   6.556 -0.2323  0.5370  0.3538
 2144SOL    HW1 7873   7.554   1.904   6.500  0.1622  0.8393 -0.1525
 2144SOL    HW2 7874   7.532   1.953   6.642 -1.6416  0.3619 -0.2407
 2145SOL     OW 7875   1.324   4.218   3.016 -0.4266 -0.2694  0.7803
 2145SOL    HW1 7876   1.369   4.231   2.932 -0.5114 -0.5584  0.6860
 2145SOL    HW2 7877   1.335   4.300   3.063 -4.2863  1.7247 -1.3332
 2146SOL     OW 7878   2.585   1.435   7.622  0.3180 -0.8014 -0.7997
 2146SOL    HW1 7879   2.651   1.370   7.600  0.6494 -0.4462 -0.8605
 2146SOL    HW2 7880   2.555   1.411   7.710  2.0096  0.2293  0.1063
 2147SOL     OW 7881   6.797   5.220   0.937 -0.3730  0.3141 -0.5425
 2147SOL    HW1 7882   6.856   5.295   0.923 -0.9303  1.3940  2.1560
 2147SOL    HW2 7883   6.819   5.190   1.026  0.0935 -3.0576 -1.6736
 2148SOL     OW 7884   7.211   4.903  11.181 -0.4949  0.1546 -0.7614
 2148SOL    HW1 7885   7.196   4.839  11.251  0.7843  0.9461  0.2798
 2148SOL    HW2 7886   7.232   4.850  11.104 -1.5777 -0.7177 -0.4874
 2149SOL     OW 7887   0.200   1.892   2.881 -0.0300  0.3833  0.1414
 2149SOL    HW1 7888   0.270   1.953   2.904 -1.2750  1.4712  1.2310
 2149SOL    HW2 7889   0.129   1.912   2.943 -1.6238 -0.1157 -1.4295
 2150SOL     OW 7890   3.228   0.361   5.882 -0.7631  0.2516 -0.2399
 2150SOL    HW1 7891   3.192   0.358   5.970  1.7119 -2.1975  0.8132
 2150SOL    HW2 7892   3.313   0.404   5.892  0.8243 -2.5508 -0.8206
 2151SOL     OW 7893   2.527   6.143  11.492 -0.0213 -0.3427 -0.0159
 2151SOL    HW1 7894   2.464   6.136  11.564 -0.2994 -1.7352 -0.3722
 2151SOL    HW2 7895   2.586   6.069  11.504  0.9861  0.3997 -0.2474
 2152SOL     OW 7896   1.373   3.304   4.268 -0.4326  0.0609 -0.4403
 2152SOL    HW1 7897   1.341   3.229   4.317  0.8614 -0.7900 -0.8515
 2152SOL    HW2 7898   1.462   3.319   4.301 -0.8175  1.7199 -0.0362
 2153SOL     OW 7899   6.821   5.110  11.800 -0.2781  0.6124 -0.3904
 2153SOL    HW1 7900   6.842   5.202  11.817 -0.9325  0.6593  0.1956
 2153SOL    HW2 7901   6.765   5.084  11.874  0.8979 -0.6084  0.1001
 2154SOL     OW 7902   3.118   1.512   3.953 -0.2969  0.4353  0.1646
 2154SOL    HW1 7903   3.174   1.456   4.006 -2.3258 -1.6875  0.2766
 2154SOL    HW2 7904   3.040   1.527   4.008 -0.2102  2.6903 -0.2284
 2155SOL     OW 7905   1.946   6.975   7.005 -0.1919  0.0761 -0.2871
 2155SOL    HW1 7906   1.956   6.925   7.085  1.0524 -0.1868 -0.5959
 2155SOL    HW2 7907   1.936   7.066   7.034  0.7165  0.0394  0.1428
 2156SOL     OW 7908   0.845   0.069   9.206 -0.0813 -0.1361 -0.5557
 2156SOL    HW1 7909   0.901   0.133   9.162  0.7709 -0.4216  0.0861
 2156SOL    HW2 7910   0.760   0.112   9.211  0.3785  0.7971 -0.4910
 2157SOL     OW 7911   7.118   3.258   4.083 -0.2187  0.3561  0.3063
 2157SOL    HW1 7912   7.204   3.218   4.100 -0.9663 -1.0702  0.9137
 2157SOL    HW2 7913   7.093   3.224   3.997 -0.5090  0.1572  0.4696
 2158SOL     OW 7914   2.749   6.031   2.476 -0.4443 -0.9098 -0.1110
 2158SOL    HW1 7915   2.669   5.986   2.448 -1.0632 -0.4922  0.9444
 2158SOL    HW2 7916   2.810   6.018   2.403 -1.2993 -1.6634 -0.7188
 2159SOL     OW 7917   1.401   4.214   7.745  0.4759 -0.2315 -0.4247
 2159SOL    HW1 7918   1.489   4.246   7.722  0.1276  0.1434 -1.2722
 2159SOL    HW2 7919   1.363   4.284   7.797  0.9062 -0.6702  0.5118
 2160SOL     OW 7920   3.040   7.424  12.307  0.2062  0.5437 -0.1569
 2160SOL    HW1 7921   3.061   7.504  12.259 -0.7789  0.7210 -0.3208
 2160SOL    HW2 7922   3.124   7.380  12.319  0.5107  0.6415 -1.7950
 2161SOL     OW 7923   1.948   1.747  11.953  0.3046 -0.0537 -0.1629
 2161SOL    HW1 7924   1.994   1.761  11.869  1.3203 -1.2261  0.1636
 2161SOL    HW2 7925   1.974   1.822  12.006 -1.5400  1.5120 -1.3390
 2162SOL     OW 7926   2.943   1.585   7.663  0.5556  0.7327 -0.4379
 2162SOL    HW1 7927   3.013   1.584   7.728  1.2793  0.8496 -1.1906
 2162SOL    HW2 7928   2.888   1.659   7.687 -0.2084 -0.2713  1.0645
 2163SOL     OW 7929   1.665   4.931   9.291  0.3383 -0.3198 -0.1673
 2163SOL    HW1 7930   1.725   4.928   9.365  0.1981  0.0407 -0.0375
 2163SOL    HW2 7931   1.716   4.970   9.220  0.0320  0.7254  0.1663
 2164SOL     OW 7932   6.575   1.054   3.815 -0.1526  0.0185  0.2807
 2164SOL    HW1 7933   6.523   0.985   3.773  0.1133 -0.4902  0.7629
 2164SOL    HW2 7934   6.613   1.104   3.743 -0.3020 -0.3799 -0.0774
 2165SOL     OW 7935   7.749   7.851   0.083  0.1637  0.3029  0.5363
 2165SOL    HW1 7936   7.722   7.807   0.163  2.8463 -0.1466  1.3027
 2165SOL    HW2 7937   7.826   7.902   0.109  1.6944 -0.5743 -1.8934
 2166SOL     OW 7938   2.226   0.987   9.468 -0.2484 -0.0623  0.3264
 2166SOL    HW1 7939   2.299   1.026   9.516 -1.1995  1.6204  0.4706
 2166SOL    HW2 7940   2.182   0.932   9.532 -0.0049  0.1266  0.6585
 2167SOL     OW 7941   5.012   6.803   2.310  0.1016 -0.1913 -0.1797
 2167SOL    HW1 7942   5.007   6.759   2.395 -0.3476  1.1818  0.5223
 2167SOL    HW2 7943   4.963   6.746   2.251  1.8093 -2.0374  0.0633
 2168SOL     OW 7944   1.943   1.053   3.360 -0.3128  0.8030  0.6249
 2168SOL    HW1 7945   2.026   1.069   3.406  0.0120 -0.5808  0.5685
 2168SOL    HW2 7946   1.876   1.066   3.427  0.0841 -0.0523  1.1996
 2169SOL     OW 7947   3.352   6.627   0.480  0.2469  0.1941  0.3257
 2169SOL    HW1 7948   3.348   6.607   0.387  0.4147 -0.0089  0.3600
 2169SOL    HW2 7949   3.329   6.720   0.486 -0.3486  0.0646  0.1416
 2170SOL     OW 7950   4.452   5.141   0.285 -0.3745 -0.3009  0.0320
 2170SOL    HW1 7951   4.404   5.210   0.330  0.2268  0.2898 -0.2086
 2170SOL    HW2 7952   4.393   5.066   0.285 -0.1381 -0.5357  2.3764
 2171SOL     OW 7953   0.768   1.686   0.276 -0.4310 -0.0716  0.4493
 2171SOL    HW1 7954   0.732   1.608   0.318 -2.5303  0.9473  0.7133
 2171SOL    HW2 7955   0.805   1.655   0.194 -0.1693 -1.4854  1.0709
 2172SOL     OW 7956   1.143   5.433   4.041 -0.6028 -0.0307 -0.3780
 2172SOL    HW1 7957   1.208   5.366   4.018  0.4027  1.0204 -0.7318
 2172SOL    HW2 7958   1.132   5.483   3.960 -0.8936  0.5803  0.0355
 2173SOL     OW 7959   1.887   1.663   5.272  0.3125 -0.8854 -0.2449
 2173SOL    HW1 7960   1.956   1.645   5.208  0.6628 -0.3617 -0.0111
 2173SOL    HW2 7961   1.828   1.587   5.264  1.3152 -1.7239  0.1029
 2174SOL     OW 7962   3.682   1.857   4.143  0.1466  0.6494  0.7150
 2174SOL    HW1 7963   3.665   1.763   4.149  0.0428  0.7489  2.5606
 2174SOL    HW2 7964   3.597   1.898   4.161  0.3441  1.1148  0.5997
 2175SOL     OW 7965   2.703   7.576  11.033 -0.4823  0.3870  0.0799
 2175SOL    HW1 7966   2.739   7.488  11.023 -1.7755 -0.0174 -1.5091
 2175SOL    HW2 7967   2.618   7.573  10.988 -0.5742  2.4406 -0.0121
 2176SOL     OW 7968   5.757   1.899   4.813  0.3958  0.2548 -0.4170
 2176SOL    HW1 7969   5.819   1.901   4.886 -1.7909 -0.1994  1.5755
 2176SOL    HW2 7970   5.777   1.817   4.767  0.5384 -0.4989  0.9245
 2177SOL     OW 7971   5.058   2.851   5.000 -1.2994 -0.7024  0.6284
 2177SOL    HW1 7972   5.131   2.814   4.951 -1.3214 -2.4925  1.8686
 2177SOL    HW2 7973   5.063   2.946   4.984 -0.9187 -1.1389 -2.2107
 2178SOL     OW 7974   7.057   1.038   2.629  0.2129 -0.4512  0.4918
 2178SOL    HW1 7975   7.052   1.065   2.721 -1.2527 -2.9744  1.2580
 2178SOL    HW2 7976   7.104   0.954   2.632  0.2704 -0.4947 -1.1077
 2179SOL     OW 7977   1.455   4.553  12.023 -0.0950  0.2656  0.2405
 2179SOL    HW1 7978   1.370   4.588  11.996  0.2005  0.8541  0.0526
 2179SOL    HW2 7979   1.507   4.630  12.046 -0.0241 -0.1541  1.6116
 2180SOL     OW 7980   5.778   0.682   5.529  0.0053 -0.1388  0.3639
 2180SOL    HW1 7981   5.687   0.669   5.553 -0.3657 -0.7330 -1.2506
 2180SOL    HW2 7982   5.775   0.743   5.455  0.9479  0.2121  0.5982
 2181SOL     OW 7983   6.385   3.865   0.175 -0.1950  0.0608  0.2055
 2181SOL    HW1 7984   6.324   3.792   0.167 -1.0294  0.6118  1.3169
 2181SOL    HW2 7985   6.460   3.839   0.121 -1.8947 -0.0960 -2.2453
 2182SOL     OW 7986   5.623   7.234   4.739  0.1360 -0.1894 -0.2131
 2182SOL    HW1 7987   5.663   7.320   4.750  1.0428 -0.4998 -0.9027
 2182SOL    HW2 7988   5.596   7.232   4.647 -2.1791  0.2773  0.3764
 2183SOL     OW 7989   4.522   5.326   6.186 -0.1927 -0.4163  0.4758
 2183SOL    HW1 7990   4.460   5.359   6.120 -1.7359 -0.6403  1.7436
 2183SOL    HW2 7991   4.520   5.393   6.255  0.3330 -0.8482  0.9135
 2184SOL     OW 7992   4.365   2.109   7.370 -0.0499 -0.0253 -0.8399
 2184SOL    HW1 7993   4.358   2.020   7.336  0.0995  0.0645 -1.1084
 2184SOL    HW2 7994   4.338   2.102   7.462  2.1389 -0.7800 -0.1851
 2185SOL     OW 7995   4.784   1.857   2.355 -0.0660  0.5617 -0.3941
 2185SOL    HW1 7996   4.787   1.816   2.442 -0.9191  1.2287 -0.0352
 2185SOL    HW2 7997   4.729   1.799   2.303  0.8269 -0.0865 -0.6383
 2186SOL     OW 7998   7.156   4.223   7.818  0.6282  1.1339  0.9289
 2186SOL    HW1 7999   7.138   4.178   7.735  1.8539  2.2540  0.0263
 2186SOL    HW2 8000   7.072   4.265   7.841  0.7333  2.3437 -0.7343
 2187SOL     OW 8001   3.585   0.103   2.614  0.5987 -0.3374 -0.3311
 2187SOL    HW1 8002   3.529   0.026   2.628 -0.7288  0.6582  0.1355
 2187SOL    HW2 8003   3.668   0.079   2.654  0.4200 -1.7558 -0.7419
 2188SOL     OW 8004   5.314   6.100   2.509  0.3064 -0.4104 -0.2016
 2188SOL    HW1 8005   5.367   6.022   2.493 -0.8264 -1.5523  1.2467
 2188SOL    HW2 8006   5.258   6.107   2.432  2.1940  0.5708 -1.5578
 2189SOL     OW 8007   1.513   4.681   7.809  0.3274  0.5655  0.1489
 2189SOL    HW1 8008   1.606   4.696   7.824  0.4935  1.8941 -1.7571
 2189SOL    HW2 8009   1.469   4.727   7.881  1.1115  0.0072  1.0075
 2190SOL     OW 8010   3.065   4.001   2.732 -0.1140  0.0648  0.0000
 2190SOL    HW1 8011   3.122   3.937   2.775  0.9124  1.1739  0.3835
 2190SOL    HW2 8012   2.979   3.959   2.728  0.7928 -1.8121 -0.9176
 2191SOL     OW 8013   7.217   2.675   9.834 -0.2695  0.3352 -0.6688
 2191SOL    HW1 8014   7.166   2.727   9.897 -1.7109 -1.3489 -0.3800
 2191SOL    HW2 8015   7.308   2.685   9.864 -0.6990  1.2814  0.4131
 2192SOL     OW 8016   6.814   2.075   4.718 -0.1375  0.0253 -0.0554
 2192SOL    HW1 8017   6.725   2.047   4.740  0.5179 -2.3141 -0.0892
 2192SOL    HW2 8018   6.830   2.037   4.631  0.8141  0.6372 -0.1616
 2193SOL     OW 8019   2.355   5.022   8.891  0.6185 -0.4459 -0.3615
 2193SOL    HW1 8020   2.434   5.017   8.945  1.1087  1.0910 -0.8882
 2193SOL    HW2 8021   2.362   4.947   8.831  2.1658  0.1707 -1.0075
 2194SOL     OW 8022   7.111   3.923   1.455 -0.2835  0.2349  0.4005
 2194SOL    HW1 8023   7.184   3.874   1.417 -0.4682 -0.3524  0.8009
 2194SOL    HW2 8024   7.146   4.011   1.469  0.6932 -0.3319  1.6224
 2195SOL     OW 8025   5.330   0.694  11.140  0.3491 -0.8208 -0.0559
 2195SOL    HW1 8026   5.373   0.669  11.058  1.5982  1.9983 -0.3668
 2195SOL    HW2 8027   5.237   0.692  11.120  0.5917 -1.2597 -1.2113
 2196SOL     OW 8028   2.854   6.725   9.178 -0.4369  0.2696 -0.6299
 2196SOL    HW1 8029   2.878   6.789   9.245 -0.2710  0.3193 -0.7362
 2196SOL    HW2 8030   2.894   6.758   9.098 -2.2471  1.2775 -1.1956
 2197SOL     OW 8031   1.092   6.008   7.315 -0.5545  0.7375  0.0622
 2197SOL    HW1 8032   1.053   6.089   7.284 -1.2159 -0.0125 -1.1285
 2197SOL    HW2 8033   1.067   5.942   7.250 -0.4633 -0.5276  1.2589
 2198SOL     OW 8034   4.816   5.271  12.318 -0.5539  0.5198 -0.3173
 2198SOL    HW1 8035   4.740   5.320  12.286 -1.6529 -0.3329  0.8754
 2198SOL    HW2 8036   4.795   5.180  12.298  0.5558  0.3391 -0.7279
 2199SOL     OW 8037   3.269   1.060   5.907  0.1682 -0.1168 -0.2795
 2199SOL    HW1 8038   3.253   1.057   5.813  2.2317  0.0968 -0.6624
 2199SOL    HW2 8039   3.313   0.978   5.927 -0.2830 -0.1762  0.5260
 2200SOL     OW 8040   7.454   1.456   8.377  0.0397 -0.3274 -0.1551
 2200SOL    HW1 8041   7.378   1.514   8.382 -0.0770 -0.4359 -0.6286
 2200SOL    HW2 8042   7.450   1.419   8.289 -0.6589 -2.1141  0.5929
 2201SOL     OW 8043   2.685   0.062   9.168  0.1904 -0.7658  0.4445
 2201SOL    HW1 8044   2.759   0.092   9.114  0.1686 -0.2369  0.6996
 2201SOL    HW2 8045   2.725   0.021   9.244  0.2517 -3.1639 -0.7972
 2202SOL     OW 8046   2.994   1.884  11.797 -0.0993  0.1562 -0.5216
 2202SOL    HW1 8047   2.953   1.836  11.724 -0.1416 -1.7390  0.6671
 2202SOL    HW2 8048   3.058   1.822  11.832  0.4795  1.3458  0.5587
 2203SOL     OW 8049   6.416   3.473  12.433 -0.4488 -0.2473  0.4155
 2203SOL    HW1 8050   6.493   3.528  12.417 -1.0617  0.6746  0.5949
 2203SOL    HW2 8051   6.392   3.491  12.524 -2.8795  2.0859 -0.5678
 2204SOL     OW 8052   5.240   1.641   1.916  0.3284 -0.6311  0.4613
 2204SOL    HW1 8053   5.150   1.642   1.950 -0.5974 -2.5896 -1.6395
 2204SOL    HW2 8054   5.295   1.636   1.994 -1.0777  3.7502  2.0104
 2205SOL     OW 8055   6.883   7.432   6.756 -0.4460  0.0102 -0.2340
 2205SOL    HW1 8056   6.841   7.400   6.836 -0.1173 -0.4614 -0.2455
 2205SOL    HW2 8057   6.827   7.401   6.685 -0.6008  0.2134 -0.2024
 2206SOL     OW 8058   5.974   2.682   1.172 -0.0274 -0.3315  0.2518
 2206SOL    HW1 8059   6.028   2.666   1.095  0.2084 -0.8771  0.5256
 2206SOL    HW2 8060   5.884   2.665   1.143 -0.2093  1.5959 -0.4990
 2207SOL     OW 8061   1.754   0.171   5.807  0.4182 -0.4886  0.0886
 2207SOL    HW1 8062   1.778   0.081   5.786  0.1055 -0.2999 -1.1992
 2207SOL    HW2 8063   1.664   0.165   5.838 -1.0810 -0.3105 -3.6478
 2208SOL     OW 8064   0.014   6.654  11.986  0.1806  0.1223  0.4645
 2208SOL    HW1 8065   0.017   6.599  11.908 -1.8835  0.9770 -0.2819
 2208SOL    HW2 8066   0.003   6.592  12.058 -1.9993 -0.5287 -0.3419
 2209SOL     OW 8067   5.958   2.974  10.288  0.4169  0.3809  0.3176
 2209SOL    HW1 8068   5.990   2.884  10.275  1.3800  0.9340 -1.4941
 2209SOL    HW2 8069   6.038   3.025  10.304  0.0243  1.1194 -0.0392
 2210SOL     OW 8070   1.685   2.686   6.295  0.3890 -0.4327  0.2360
 2210SOL    HW1 8071   1.636   2.678   6.214 -0.9710 -0.7814  1.0523
 2210SOL    HW2 8072   1.752   2.618   6.290  0.8706  0.1038 -0.9344
 2211SOL     OW 8073   0.156   0.753   2.936 -0.1787  0.0131  0.5969
 2211SOL    HW1 8074   0.184   0.694   3.007  0.7709  0.3747  0.5439
 2211SOL    HW2 8075   0.236   0.799   2.911 -0.5104 -0.1059 -0.7224
 2212SOL     OW 8076   7.614   3.006   4.916 -0.5238  0.8778  0.1758
 2212SOL    HW1 8077   7.699   2.979   4.953 -1.6375 -0.1729  2.1402
 2212SOL    HW2 8078   7.612   3.101   4.928  0.1571  0.8477  0.6157
 2213SOL     OW 8079   1.802   5.208  10.994  0.0593 -0.3673 -0.4041
 2213SOL    HW1 8080   1.781   5.118  10.970  0.4112 -1.1111  1.8463
 2213SOL    HW2 8081   1.812   5.206  11.089  2.2844  1.5937 -0.4984
 2214SOL     OW 8082   3.317   1.218   5.523 -0.0527  0.9453  0.3326
 2214SOL    HW1 8083   3.278   1.145   5.572  1.4695  0.2100  0.5074
 2214SOL    HW2 8084   3.378   1.258   5.584 -0.1691  1.7799 -0.0838
 2215SOL     OW 8085   4.956   1.610   1.946  0.0016  0.2634 -0.1075
 2215SOL    HW1 8086   4.883   1.598   1.885  2.9106 -1.4542 -3.6300
 2215SOL    HW2 8087   4.948   1.538   2.008 -0.0551 -1.3776 -1.9304
 2216SOL     OW 8088   0.390   3.768   0.951  0.1586 -0.3343  0.0867
 2216SOL    HW1 8089   0.298   3.793   0.944 -0.7883 -3.2724  0.7020
 2216SOL    HW2 8090   0.436   3.830   0.894 -2.6196 -0.8980 -3.0825
 2217SOL     OW 8091   7.521   1.415   3.193 -0.4416  0.0130 -0.3174
 2217SOL    HW1 8092   7.475   1.332   3.178 -0.7757  0.3737 -1.3989
 2217SOL    HW2 8093   7.517   1.460   3.108 -1.8602  1.9477  0.6963
 2218SOL     OW 8094   5.564   3.432  10.314 -0.2787 -0.1971 -0.1936
 2218SOL    HW1 8095   5.657   3.411  10.316 -0.3501 -0.7523 -1.7388
 2218SOL    HW2 8096   5.531   3.387  10.237 -1.5670  1.0642 -0.4123
 2219SOL     OW 8097   5.510   6.254   5.567 -0.1763  0.3262  0.4984
 2219SOL    HW1 8098   5.543   6.216   5.649 -0.6093 -0.0358  0.5071
 2219SOL    HW2 8099   5.425   6.291   5.590 -0.4603 -0.0868  0.1367
 2220SOL     OW 8100   5.628   7.620   8.860  0.4454  0.5556 -0.2238
 2220SOL    HW1 8101   5.708   7.568   8.856 -0.0806 -0.4629  1.4530
 2220SOL    HW2 8102   5.562   7.559   8.892 -0.4588  1.9941  0.7563
 2221SOL     OW 8103   4.520   1.496   0.505  0.1613  0.3744 -0.0244
 2221SOL    HW1 8104   4.513   1.514   0.411  2.4073  0.6809 -0.1836
 2221SOL    HW2 8105   4.593   1.436   0.512 -1.0421 -0.9994  1.4240
 2222SOL     OW 8106   3.390   6.334   0.571 -0.0154  0.0826  0.0836
 2222SOL    HW1 8107   3.372   6.428   0.563  2.3603  0.7907  1.9035
 2222SOL    HW2 8108   3.468   6.320   0.517 -1.5267 -1.3982 -1.9101
 2223SOL     OW 8109   3.269   2.999   6.883  0.1599  0.0546 -0.0014
 2223SOL    HW1 8110   3.287   3.088   6.914 -0.2872  0.1210  0.0684
 2223SOL    HW2 8111   3.353   2.969   6.848  0.4924  0.2497  0.5978
 2224SOL     OW 8112   2.735   4.820   0.821 -0.0389 -0.3906  0.3664
 2224SOL    HW1 8113   2.747   4.879   0.746 -0.3799 -0.2532  0.4199
 2224SOL    HW2 8114   2.819   4.775   0.829 -0.2050 -0.8733 -0.4990
 2225SOL     OW 8115   1.678   2.255   9.800 -0.1526 -0.1215  0.5817
 2225SOL    HW1 8116   1.753   2.288   9.850  1.1429  0.7184 -1.7604
 2225SOL    HW2 8117   1.704   2.167   9.774 -0.4511 -0.2393  0.6896
 2226SOL     OW 8118   4.997   4.154   9.004 -0.1487 -0.5426  0.7965
 2226SOL    HW1 8119   5.040   4.069   9.005 -1.5841 -1.4727 -2.7747
 2226SOL    HW2 8120   5.043   4.204   8.937 -1.7703  0.0099  0.0264
 2227SOL     OW 8121   5.139   1.229   9.479  0.3352  0.6825  0.0229
 2227SOL    HW1 8122   5.224   1.185   9.484  0.1830  0.5248  1.5956
 2227SOL    HW2 8123   5.114   1.222   9.387  1.9347  0.5678 -0.4361
 2228SOL     OW 8124   3.208   1.002  11.419 -0.4526  0.3451 -0.3093
 2228SOL    HW1 8125   3.265   0.985  11.344  0.1386  0.5426  0.0923
 2228SOL    HW2 8126   3.145   1.066  11.388 -0.8568 -0.3492 -0.9476
 2229SOL     OW 8127   4.362   5.970  10.513 -0.4289 -0.2116  0.3907
 2229SOL    HW1 8128   4.397   6.022  10.441 -2.3947  0.0457 -0.4320
 2229SOL    HW2 8129   4.285   6.017  10.542 -0.8303 -1.3780  1.3096
 2230SOL     OW 8130   1.999   5.696   1.705  0.3503  0.0872  0.1788
 2230SOL    HW1 8131   2.012   5.775   1.652  0.5557  1.2243  1.8513
 2230SOL    HW2 8132   2.077   5.692   1.761 -0.6385 -0.0737  1.6057
 2231SOL     OW 8133   1.458   2.395   9.983  0.1518  0.1823 -0.1913
 2231SOL    HW1 8134   1.364   2.377   9.979  0.1565  0.0001  0.3239
 2231SOL    HW2 8135   1.495   2.347   9.909 -0.4801  2.5806 -2.1795
 2232SOL     OW 8136   6.729   1.674  12.392 -0.1646 -0.4136  0.3961
 2232SOL    HW1 8137   6.780   1.751  12.417  1.8469 -1.3572 -0.5628
 2232SOL    HW2 8138   6.794   1.613  12.357 -1.9617 -1.7448 -0.7685
 2233SOL     OW 8139   5.470   1.029   3.605  0.0034 -0.0255 -0.0221
 2233SOL    HW1 8140   5.557   0.991   3.620  1.3177  2.3874 -0.8633
 2233SOL    HW2 8141   5.486   1.124   3.605 -2.1630  0.4577 -2.8251
 2234SOL     OW 8142   1.927   7.435   7.460  0.3545 -0.3143  0.0190
 2234SOL    HW1 8143   1.886   7.521   7.472 -0.1234 -0.4060 -0.8246
 2234SOL    HW2 8144   1.926   7.422   7.365 -0.7575 -1.8211  0.2102
 2235SOL     OW 8145   2.530   2.148  10.351  0.9027  0.5683  0.3192
 2235SOL    HW1 8146   2.486   2.179  10.271 -1.0404 -0.6796  0.8300
 2235SOL    HW2 8147   2.622   2.143  10.327  0.7843  2.9566 -0.9512
 2236SOL     OW 8148   2.463   0.097   9.685 -0.1123 -0.0369 -0.3924
 2236SOL    HW1 8149   2.558   0.109   9.674 -0.2824  2.7333  0.2367
 2236SOL    HW2 8150   2.455   0.039   9.760  1.1709  1.2130  0.7829
 2237SOL     OW 8151   6.225   7.235   4.905  0.3545 -0.0258 -0.3662
 2237SOL    HW1 8152   6.161   7.289   4.859 -0.0606  0.9965  1.3172
 2237SOL    HW2 8153   6.307   7.251   4.858  0.0978  1.5583 -0.3415
 2238SOL     OW 8154   1.938   3.071  10.457 -0.8707  0.1218 -0.2147
 2238SOL    HW1 8155   1.925   2.977  10.442 -1.9535  0.1479  0.4915
 2238SOL    HW2 8156   1.861   3.112  10.417  0.4662  0.8930 -2.1518
 2239SOL     OW 8157   6.562   5.684   1.218  0.8479 -0.5538 -0.4187
 2239SOL    HW1 8158   6.582   5.591   1.228 -0.3765 -0.9619 -1.4431
 2239SOL    HW2 8159   6.594   5.725   1.298  0.4367 -2.0340  0.5312
 2240SOL     OW 8160   3.888   5.632   6.246  0.7369  0.1768  0.2798
 2240SOL    HW1 8161   3.936   5.618   6.328 -1.5194  0.1997  1.6829
 2240SOL    HW2 8162   3.883   5.546   6.206  1.8476  0.1605  0.1493
 2241SOL     OW 8163   6.711   6.742   8.581 -0.1750  0.1081  0.4943
 2241SOL    HW1 8164   6.632   6.794   8.563 -0.3019 -0.4610 -0.7284
 2241SOL    HW2 8165   6.776   6.777   8.521  0.4656  0.4599  1.3825
 2242SOL     OW 8166   3.616   6.132   6.406 -0.6387  0.3078 -0.1471
 2242SOL    HW1 8167   3.634   6.223   6.429 -1.1225  0.4407 -0.2748
 2242SOL    HW2 8168   3.696   6.085   6.428 -0.8048  0.5553  1.0861
 2243SOL     OW 8169   1.410   6.665   0.455 -0.2641  0.3989  0.1348
 2243SOL    HW1 8170   1.399   6.731   0.523 -0.1801  1.1592 -0.5730
 2243SOL    HW2 8171   1.492   6.689   0.412 -0.3498 -0.0274 -0.2728
 2244SOL     OW 8172   0.045   5.485   5.272 -0.2899  0.1806  0.2892
 2244SOL    HW1 8173   0.128   5.497   5.226  0.0195  3.2310  1.3998
 2244SOL    HW2 8174   0.067   5.495   5.365 -1.8236  0.8213  0.6195
 2245SOL     OW 8175   1.977   6.639   5.778 -0.2231  0.0999  0.0082
 2245SOL    HW1 8176   1.937   6.602   5.857 -1.6363 -0.0884 -0.7516
 2245SOL    HW2 8177   1.933   6.594   5.706  0.5535  0.7531 -0.9014
 2246SOL     OW 8178   1.191   2.940  10.788 -0.8210 -0.1360  0.1965
 2246SOL    HW1 8179   1.240   2.894  10.856  1.7395  0.3279 -1.1833
 2246SOL    HW2 8180   1.136   3.002  10.836  1.4746  0.7279  1.8889
 2247SOL     OW 8181   2.136   1.774   9.557  0.2809 -0.1609  0.3862
 2247SOL    HW1 8182   2.205   1.749   9.496  0.4672 -1.8123  1.1944
 2247SOL    HW2 8183   2.065   1.807   9.502  0.3938 -1.6958 -0.7399
 2248SOL     OW 8184   4.228   5.657   0.203 -0.6133 -0.3732  0.2065
 2248SOL    HW1 8185   4.156   5.607   0.242 -1.2462 -0.2037 -0.7086
 2248SOL    HW2 8186   4.186   5.737   0.170 -0.1518 -0.6270 -1.0436
 2249SOL     OW 8187   2.669   4.472   4.969  0.3319  0.4646  0.4051
 2249SOL    HW1 8188   2.658   4.451   4.876  0.8845  1.3704  0.1171
 2249SOL    HW2 8189   2.580   4.473   5.004  0.0742  0.6271 -0.2377
 2250SOL     OW 8190   7.914   4.465  10.188  0.4385 -0.0328  0.6001
 2250SOL    HW1 8191   7.906   4.409  10.266  0.0101  0.6214  1.0389
 2250SOL    HW2 8192   7.888   4.551  10.219  0.5719  0.2979 -0.2059
 2251SOL     OW 8193   5.210   5.984   0.839 -0.2632 -0.0926 -0.3094
 2251SOL    HW1 8194   5.207   6.045   0.913 -0.2934  0.1491 -0.5092
 2251SOL    HW2 8195   5.234   5.900   0.879  1.5616  0.4072 -0.2380
 2252SOL     OW 8196   3.508   3.485   7.897  0.0797 -0.0879  0.6518
 2252SOL    HW1 8197   3.416   3.468   7.918  0.1932 -0.3753  0.9203
 2252SOL    HW2 8198   3.555   3.408   7.929  0.2382 -0.6798 -0.9102
 2253SOL     OW 8199   6.682   2.342  11.246  0.3335  0.3307  0.1612
 2253SOL    HW1 8200   6.606   2.325  11.301  0.9640 -1.6885  0.4800
 2253SOL    HW2 8201   6.659   2.307  11.160  1.0828 -0.8235  0.4088
 2254SOL     OW 8202   4.729   7.408   7.514  0.4474  0.1682 -1.1409
 2254SOL    HW1 8203   4.704   7.500   7.500  1.3377  0.9689  1.7115
 2254SOL    HW2 8204   4.708   7.391   7.606  2.8159 -1.5817 -0.8033
 2255SOL     OW 8205   4.031   3.305   0.285  0.1774 -0.1546 -0.1275
 2255SOL    HW1 8206   4.098   3.297   0.217  1.2084 -3.3074  1.0876
 2255SOL    HW2 8207   3.948   3.295   0.238  0.6128  1.2251 -1.2964
 2256SOL     OW 8208   4.884   2.535   8.579 -0.1257  0.2394 -0.3031
 2256SOL    HW1 8209   4.922   2.559   8.495 -1.3160  1.1927 -0.6077
 2256SOL    HW2 8210   4.920   2.449   8.598 -0.1400 -0.1807 -1.9949
 2257SOL     OW 8211   0.451   7.773  10.259 -0.1408 -0.4025 -0.0259
 2257SOL    HW1 8212   0.387   7.838  10.230  0.8226  0.5717 -0.0155
 2257SOL    HW2 8213   0.439   7.768  10.354  1.0512  1.2060  0.2529
 2258SOL     OW 8214   1.741   6.410   4.087  0.3448 -0.6004 -0.0746
 2258SOL    HW1 8215   1.710   6.488   4.133  2.3101  0.0465  0.2428
 2258SOL    HW2 8216   1.773   6.352   4.157  1.6523 -0.3938 -0.4749
 2259SOL     OW 8217   7.539   7.849   8.491  0.0569 -0.4071  0.9503
 2259SOL    HW1 8218   7.581   7.927   8.526  0.7914 -1.1804  1.8520
 2259SOL    HW2 8219   7.596   7.777   8.517  0.7135 -1.0521 -1.9363
 2260SOL     OW 8220   1.104   6.093   8.811 -0.2338  0.1438 -0.2880
 2260SOL    HW1 8221   1.035   6.094   8.877 -0.5742  3.0075 -0.5335
 2260SOL    HW2 8222   1.070   6.148   8.740  2.0853  1.3749 -0.5830
 2261SOL     OW 8223   0.284   1.640  12.201 -0.1732  0.5468 -0.0245
 2261SOL    HW1 8224   0.316   1.700  12.269 -0.6033  0.2761  0.4221
 2261SOL    HW2 8225   0.295   1.553  12.240 -0.2958  0.3840 -0.3586
 2262SOL     OW 8226   2.233   6.147   4.136  0.1696  0.4255  0.8440
 2262SOL    HW1 8227   2.181   6.227   4.129 -1.0855 -0.1289  3.0155
 2262SOL    HW2 8228   2.209   6.096   4.059  0.7959  1.9915 -0.4333
 2263SOL     OW 8229   4.039   2.559   8.979  0.2567  0.2692 -0.1927
 2263SOL    HW1 8230   4.112   2.599   9.026  0.9654 -1.1478 -0.0540
 2263SOL    HW2 8231   4.021   2.478   9.026 -0.9938  0.2773 -0.6080
 2264SOL     OW 8232   1.427   1.330  11.168  0.8545  0.0039  0.2960
 2264SOL    HW1 8233   1.408   1.244  11.130  0.0163 -0.0550  0.8085
 2264SOL    HW2 8234   1.385   1.327  11.254  2.1168  0.3826  0.9433
 2265SOL     OW 8235   0.623   0.896   6.097 -0.4563  0.2220 -0.6545
 2265SOL    HW1 8236   0.696   0.956   6.110  1.2277 -2.0494  1.5130
 2265SOL    HW2 8237   0.664   0.817   6.060 -2.4122 -0.0414 -2.4652
 2266SOL     OW 8238   2.732   6.059   9.106  0.0549 -0.0565 -0.2296
 2266SOL    HW1 8239   2.798   5.991   9.115 -0.8446 -0.7443  2.0643
 2266SOL    HW2 8240   2.773   6.137   9.143 -0.0515 -0.2417  0.2977
 2267SOL     OW 8241   4.798   6.003   0.480  0.3438  0.3913 -0.5796
 2267SOL    HW1 8242   4.818   5.915   0.448  0.1053  0.3711 -0.6727
 2267SOL    HW2 8243   4.875   6.055   0.457  0.6736  0.1078 -0.1296
 2268SOL     OW 8244   2.972   5.870   0.063  0.6000  0.6087 -0.2779
 2268SOL    HW1 8245   2.883   5.905   0.054  1.2546  1.8742 -2.6757
 2268SOL    HW2 8246   2.961   5.775   0.064 -0.6853  0.6213 -3.2289
 2269SOL     OW 8247   7.522   6.354  10.976  0.4571 -0.1681 -0.0988
 2269SOL    HW1 8248   7.608   6.322  11.003  0.6744  1.0704  0.7799
 2269SOL    HW2 8249   7.541   6.414  10.903  0.3167 -0.1029 -0.0820
 2270SOL     OW 8250   3.690   5.846  10.002 -0.2286  0.1214  0.0570
 2270SOL    HW1 8251   3.707   5.918   9.941 -0.7036 -0.2122 -0.4733
 2270SOL    HW2 8252   3.760   5.853  10.068  0.7463  0.0180 -0.9387
 2271SOL     OW 8253   4.997   1.553   7.519 -0.0221 -0.0673 -0.0836
 2271SOL    HW1 8254   5.017   1.520   7.431  0.1182 -0.1352 -0.0263
 2271SOL    HW2 8255   5.064   1.620   7.534 -0.0364 -0.0679 -0.0207
 2272SOL     OW 8256   7.284   4.548   5.809  0.2502 -0.1698 -0.0839
 2272SOL    HW1 8257   7.329   4.588   5.734 -0.9679 -0.2198 -0.8798
 2272SOL    HW2 8258   7.196   4.531   5.777 -1.2159  2.3120  2.1374
 2273SOL     OW 8259   4.985   6.815   1.955 -0.0817 -0.6737 -0.5737
 2273SOL    HW1 8260   4.957   6.724   1.956 -1.0204 -0.3994 -0.7981
 2273SOL    HW2 8261   5.080   6.811   1.961 -0.2054 -1.5991  1.7209
 2274SOL     OW 8262   7.684   2.213   7.869 -0.1051  0.1580 -0.0561
 2274SOL    HW1 8263   7.749   2.157   7.826 -0.3200  0.0551 -0.2512
 2274SOL    HW2 8264   7.604   2.201   7.817 -0.2005  0.5091  0.0050
 2275SOL     OW 8265   6.205   1.443  11.144 -0.4999 -0.1603 -0.7971
 2275SOL    HW1 8266   6.140   1.378  11.119 -0.1663 -0.8368  0.0869
 2275SOL    HW2 8267   6.289   1.397  11.137 -0.3835 -0.4482  1.6713
 2276SOL     OW 8268   7.378   7.562   7.577  0.6256  0.4047  0.0462
 2276SOL    HW1 8269   7.309   7.604   7.629 -0.3090 -0.7606 -0.2052
 2276SOL    HW2 8270   7.345   7.565   7.487  0.9930  0.0237 -0.1026
 2277SOL     OW 8271   6.992   4.899   8.427 -0.3697 -0.1913 -0.0372
 2277SOL    HW1 8272   7.023   4.989   8.415  0.1796 -0.3570  0.1430
 2277SOL    HW2 8273   6.908   4.909   8.471 -1.0158  0.3003 -1.3252
 2278SOL     OW 8274   1.255   0.096  12.008  0.2704 -0.0371  0.6218
 2278SOL    HW1 8275   1.278   0.034  12.077  0.8321 -1.3271 -0.6834
 2278SOL    HW2 8276   1.160   0.105  12.015  0.0926 -1.5096  0.4783
 2279SOL     OW 8277   4.580   5.135  10.894  0.1434 -0.1818 -0.0426
 2279SOL    HW1 8278   4.634   5.056  10.895 -1.7715 -1.5606  1.0484
 2279SOL    HW2 8279   4.494   5.105  10.864 -1.4419  0.8399  3.0456
 2280SOL     OW 8280   1.970   0.668   5.902  0.0025 -0.0453 -0.5295
 2280SOL    HW1 8281   1.879   0.698   5.899 -0.0878 -0.1648  0.6721
 2280SOL    HW2 8282   1.987   0.636   5.813 -1.0051  0.3175 -0.8738
 2281SOL     OW 8283   4.178   6.174   0.404 -0.9016  0.6428  0.4494
 2281SOL    HW1 8284   4.202   6.208   0.318 -0.2705  0.6212  0.6166
 2281SOL    HW2 8285   4.101   6.226   0.429 -1.6351  0.0530 -0.4964
 2282SOL     OW 8286   7.181   3.507  11.990 -0.3272  0.4015  0.3309
 2282SOL    HW1 8287   7.159   3.504  12.083  1.6070  1.0032  0.8628
 2282SOL    HW2 8288   7.141   3.588  11.958 -0.4632  0.5235  0.8084
 2283SOL     OW 8289   7.052   3.772   5.688 -0.3488 -0.2196 -0.4729
 2283SOL    HW1 8290   7.013   3.855   5.661  0.2320  0.1080 -0.2988
 2283SOL    HW2 8291   7.134   3.796   5.730  1.2559 -1.0309 -2.9412
 2284SOL     OW 8292   4.461   3.992  11.179  0.0766 -0.4976  0.2111
 2284SOL    HW1 8293   4.372   3.961  11.200 -0.0710  0.5287  1.2058
 2284SOL    HW2 8294   4.481   4.056  11.248  2.5926 -2.5131  1.5165
 2285SOL     OW 8295   2.873   2.786   8.470 -0.1078 -0.3677  0.0240
 2285SOL    HW1 8296   2.905   2.791   8.560 -0.1971  1.5322 -0.0014
 2285SOL    HW2 8297   2.919   2.857   8.425  0.6956 -1.9045 -1.7059
 2286SOL     OW 8298   2.157   7.214  11.876 -0.3095  0.3906 -0.4632
 2286SOL    HW1 8299   2.235   7.159  11.874  0.1843  1.0219  0.5895
 2286SOL    HW2 8300   2.104   7.178  11.947 -1.6855 -0.9209 -2.0644
 2287SOL     OW 8301   2.797   6.874   5.425 -0.3389 -0.4543 -0.1860
 2287SOL    HW1 8302   2.780   6.811   5.495  1.5808  0.0244  0.7796
 2287SOL    HW2 8303   2.842   6.823   5.358 -0.9144 -0.6072 -0.4613
 2288SOL     OW 8304   3.902   3.421  11.939 -0.1678  0.1623  0.1874
 2288SOL    HW1 8305   3.953   3.415  11.858  0.0162 -0.5908  0.3588
 2288SOL    HW2 8306   3.879   3.514  11.945  1.8580  0.6846  0.5210
 2289SOL     OW 8307   7.500   6.963   8.380 -0.2823  0.5155 -0.2908
 2289SOL    HW1 8308   7.423   7.020   8.383 -0.5519  0.1068  1.4409
 2289SOL    HW2 8309   7.488   6.911   8.300 -1.7125  0.5946 -0.1573
 2290SOL     OW 8310   1.957   5.834   7.577  0.0354  0.2419 -0.4328
 2290SOL    HW1 8311   1.884   5.819   7.516 -0.5759 -0.9030  0.5306
 2290SOL    HW2 8312   2.033   5.848   7.521 -0.5613 -0.5051 -1.4610
 2291SOL     OW 8313   3.698   0.350   5.637 -0.0289 -0.2551  0.4611
 2291SOL    HW1 8314   3.630   0.372   5.574 -0.0481  2.2512  1.2660
 2291SOL    HW2 8315   3.733   0.267   5.606 -0.5605  0.5020 -2.4251
 2292SOL     OW 8316   3.710   5.357   6.304 -1.1270 -0.2110  0.0075
 2292SOL    HW1 8317   3.755   5.284   6.262 -2.7317 -0.9808 -0.4518
 2292SOL    HW2 8318   3.701   5.423   6.234  0.1060  0.3515  0.3578
 2293SOL     OW 8319   0.236   1.021   3.548 -0.0339 -0.9810 -0.1363
 2293SOL    HW1 8320   0.226   1.068   3.631  0.9246  1.0400 -1.1096
 2293SOL    HW2 8321   0.172   1.061   3.490  0.5882 -1.0899 -0.9093
 2294SOL     OW 8322   5.801   4.543   9.330 -0.0665 -0.3568  0.1448
 2294SOL    HW1 8323   5.719   4.586   9.353 -0.3212 -0.1356 -1.1220
 2294SOL    HW2 8324   5.869   4.605   9.356 -0.4046  0.5019 -1.0034
 2295SOL     OW 8325   3.681   0.637   5.755  0.1277  0.1912  0.5047
 2295SOL    HW1 8326   3.711   0.591   5.834 -0.4559  0.1921  0.7268
 2295SOL    HW2 8327   3.687   0.571   5.686  1.6525  0.4832  0.3220
 2296SOL     OW 8328   7.710   7.346   3.049 -0.7255  0.1078  0.6875
 2296SOL    HW1 8329   7.640   7.343   3.114 -1.2335 -1.2915  0.1062
 2296SOL    HW2 8330   7.778   7.290   3.085 -0.1288  0.9750  0.9577
 2297SOL     OW 8331   6.864   6.607   6.508 -0.1169 -0.7159 -0.3317
 2297SOL    HW1 8332   6.810   6.565   6.441 -0.9750 -0.7404  0.3512
 2297SOL    HW2 8333   6.954   6.590   6.481 -0.4499 -0.7952 -1.4235
 2298SOL     OW 8334   3.410   3.109   0.337 -0.0273 -0.5302  0.1958
 2298SOL    HW1 8335   3.354   3.031   0.336 -0.3466 -0.3192 -1.1085
 2298SOL    HW2 8336   3.383   3.158   0.259  0.6816  0.5171  0.5910
 2299SOL     OW 8337   3.728   6.276   5.308 -0.2258 -0.1404 -0.2847
 2299SOL    HW1 8338   3.648   6.281   5.254 -0.9767 -1.8889  0.5815
 2299SOL    HW2 8339   3.706   6.325   5.387  0.3281  1.1276 -0.8948
 2300SOL     OW 8340   4.959   0.022   6.403 -0.1924  0.1264 -0.0533
 2300SOL    HW1 8341   4.909   0.088   6.451 -1.0596 -1.0302  0.6876
 2300SOL    HW2 8342   4.910   0.007   6.322 -0.1414  0.2041 -0.0984
 2301SOL     OW 8343   3.495   7.881   7.640 -0.4399  0.2441 -0.1105
 2301SOL    HW1 8344   3.463   7.967   7.615 -0.6036  0.4432  0.7409
 2301SOL    HW2 8345   3.459   7.867   7.728  0.3700 -0.2732  0.1502
 2302SOL     OW 8346   6.088   3.063   3.404  0.9052 -0.3751  0.0803
 2302SOL    HW1 8347   6.106   3.134   3.465  0.5158 -0.3352  0.1506
 2302SOL    HW2 8348   6.067   2.988   3.460 -3.0962  0.5163  0.1181
 2303SOL     OW 8349   7.912   6.910   3.402 -0.5360 -0.3141  0.2143
 2303SOL    HW1 8350   7.978   6.854   3.362 -0.2510 -0.9256  1.5265
 2303SOL    HW2 8351   7.911   6.988   3.346 -1.7914 -2.0187 -2.3741
 2304SOL     OW 8352   2.621   4.941   0.575  0.5161  0.4981 -0.1476
 2304SOL    HW1 8353   2.542   4.995   0.579  0.7082  0.7083  1.1853
 2304SOL    HW2 8354   2.593   4.861   0.531  0.2531  1.6764 -2.2656
 2305SOL     OW 8355   3.786   6.628   1.671  0.4001 -0.4997  0.2727
 2305SOL    HW1 8356   3.763   6.536   1.660  0.1722 -0.7467  2.3541
 2305SOL    HW2 8357   3.820   6.634   1.761 -0.8113  1.6570  0.6872
 2306SOL     OW 8358   6.160   0.307   7.207  0.0906  0.1332 -0.0813
 2306SOL    HW1 8359   6.222   0.283   7.276 -0.3148 -0.4073  0.1038
 2306SOL    HW2 8360   6.076   0.314   7.252 -0.1871 -0.2802 -0.5278
 2307SOL     OW 8361   6.786   3.166   0.349  0.0238  0.3237 -0.1898
 2307SOL    HW1 8362   6.711   3.196   0.400  1.1625  1.8898  0.6191
 2307SOL    HW2 8363   6.778   3.070   0.350 -1.9085  0.4353 -0.0791
 2308SOL     OW 8364   3.767   3.749   2.134 -0.3590 -0.3129 -0.3674
 2308SOL    HW1 8365   3.850   3.714   2.102 -1.3775 -2.0641 -1.2345
 2308SOL    HW2 8366   3.744   3.817   2.071 -0.4897 -1.1293 -1.2172
 2309SOL     OW 8367   4.164   7.915   6.702  0.2239 -0.2079 -0.5520
 2309SOL    HW1 8368   4.077   7.939   6.735  0.6647 -0.1928  0.6453
 2309SOL    HW2 8369   4.160   7.934   6.608 -0.6172  1.1568 -0.2720
 2310SOL     OW 8370   5.635   5.060   8.072  0.1035 -0.2303 -0.4509
 2310SOL    HW1 8371   5.677   5.019   8.148 -0.2485  0.5776  0.1908
 2310SOL    HW2 8372   5.589   5.136   8.108 -1.0713 -0.5150 -1.2957
 2311SOL     OW 8373   3.388   2.577   2.260  0.4803 -0.2328  1.0562
 2311SOL    HW1 8374   3.349   2.605   2.343  1.2377  0.6266  1.1404
 2311SOL    HW2 8375   3.415   2.658   2.217 -1.6429 -0.4770 -0.9624
 2312SOL     OW 8376   4.007   7.519   0.772  0.2669 -0.2320 -0.2821
 2312SOL    HW1 8377   4.090   7.492   0.810  0.0920  1.3075  1.2721
 2312SOL    HW2 8378   3.986   7.449   0.709  0.9222 -2.5404  1.8962
 2313SOL     OW 8379   1.786   7.317  11.608  0.4449 -0.2654 -0.3492
 2313SOL    HW1 8380   1.762   7.407  11.588  0.2346 -0.1602  0.3294
 2313SOL    HW2 8381   1.755   7.304  11.698 -0.8909 -1.4810 -0.9436
 2314SOL     OW 8382   7.349   7.960   4.995  0.1004  0.0923 -0.3187
 2314SOL    HW1 8383   7.418   7.954   5.061 -0.5742  0.5097  0.4407
 2314SOL    HW2 8384   7.393   7.939   4.913  0.7753 -1.3502  0.3647
 2315SOL     OW 8385   3.990   1.037   3.568  0.0486 -0.3459  0.4846
 2315SOL    HW1 8386   4.057   0.980   3.529  0.7445  0.3193  0.6825
 2315SOL    HW2 8387   3.923   1.045   3.501  0.5343 -0.3990 -0.0119
 2316SOL     OW 8388   2.021   1.795   0.652 -0.0610 -0.5772  0.0803
 2316SOL    HW1 8389   2.005   1.766   0.742 -0.8661  0.6415  0.3543
 2316SOL    HW2 8390   2.000   1.719   0.598 -1.3153 -0.7813  0.8162
 2317SOL     OW 8391   7.583   0.953   3.143 -0.3259 -0.0374 -0.3360
 2317SOL    HW1 8392   7.613   0.967   3.053  2.9612 -1.6152  0.3409
 2317SOL    HW2 8393   7.548   1.037   3.171  1.2126  1.3037 -2.1995
 2318SOL     OW 8394   0.238   5.388  11.903 -0.0325  0.3718 -0.0115
 2318SOL    HW1 8395   0.184   5.401  11.981 -1.1134  0.7711 -0.8050
 2318SOL    HW2 8396   0.315   5.340  11.934 -0.5521  0.3356  1.2526
 2319SOL     OW 8397   5.000   3.749   7.518  0.2566  0.2079  0.1202
 2319SOL    HW1 8398   4.979   3.729   7.609 -1.2181 -0.2582 -0.2837
 2319SOL    HW2 8399   5.090   3.780   7.520  0.2895  0.0949  1.7177
 2320SOL     OW 8400   0.330   6.018   0.823 -0.6022 -0.5427  0.0195
 2320SOL    HW1 8401   0.364   6.050   0.907  0.9765 -1.0179 -0.3894
 2320SOL    HW2 8402   0.308   5.926   0.840  0.5081 -0.8824 -0.2537
 2321SOL     OW 8403   4.400   6.845   6.591 -0.0321 -0.0207 -0.1253
 2321SOL    HW1 8404   4.401   6.820   6.683 -0.2121  0.0478 -0.1031
 2321SOL    HW2 8405   4.354   6.773   6.547 -0.4232  0.1960 -0.0818
 2322SOL     OW 8406   0.883   4.615   3.019  0.2171  0.1821 -0.0380
 2322SOL    HW1 8407   0.838   4.693   2.988  2.2519  0.2892 -3.2836
 2322SOL    HW2 8408   0.845   4.543   2.968  1.6861 -0.1247 -0.7745
 2323SOL     OW 8409   6.178   0.727   9.208 -0.2774  0.0596 -0.2756
 2323SOL    HW1 8410   6.165   0.667   9.135  0.0848 -0.2364 -0.0990
 2323SOL    HW2 8411   6.090   0.743   9.242 -0.3653 -0.4742 -0.2398
 2324SOL     OW 8412   0.077   3.840   3.923 -0.1565 -0.3703 -0.1520
 2324SOL    HW1 8413  -0.008   3.846   3.966 -0.0390 -1.0815  0.1896
 2324SOL    HW2 8414   0.112   3.755   3.949  1.2632  0.4597  0.8297
 2325SOL     OW 8415   4.500   3.143   3.098 -0.3680  0.4820  0.3020
 2325SOL    HW1 8416   4.590   3.134   3.130 -0.5726 -0.7746  0.5887
 2325SOL    HW2 8417   4.450   3.079   3.149 -1.1425  0.0874 -0.9050
 2326SOL     OW 8418   6.085   7.810   2.180 -0.1280 -0.7169 -0.1310
 2326SOL    HW1 8419   5.999   7.788   2.215 -0.5655  1.7585  0.5599
 2326SOL    HW2 8420   6.147   7.787   2.249 -0.5751  0.2670  0.6216
 2327SOL     OW 8421   2.187   6.092   7.625 -0.3066  0.4010 -0.0009
 2327SOL    HW1 8422   2.254   6.091   7.693 -0.5935  0.2961  0.2787
 2327SOL    HW2 8423   2.233   6.126   7.548 -0.4697  2.5166  0.7654
 2328SOL     OW 8424   7.538   1.373  10.313  0.1618  0.1803 -0.4478
 2328SOL    HW1 8425   7.606   1.413  10.260 -0.4707  0.3873 -1.1145
 2328SOL    HW2 8426   7.493   1.446  10.356 -1.3159  0.2940 -2.0534
 2329SOL     OW 8427   4.334   2.364   2.997 -0.5777 -0.3363  0.4830
 2329SOL    HW1 8428   4.283   2.283   3.000 -0.6057 -0.3053  1.0797
 2329SOL    HW2 8429   4.271   2.432   2.974 -0.1261 -0.7902 -2.4328
 2330SOL     OW 8430   6.003   2.600   5.213 -0.4058  0.1417  0.8408
 2330SOL    HW1 8431   6.012   2.639   5.126  2.3220  2.4479  1.9941
 2330SOL    HW2 8432   5.937   2.532   5.202 -1.7039  1.7173 -2.5236
 2331SOL     OW 8433   1.584   6.482   5.412 -0.5173  0.3503  0.0369
 2331SOL    HW1 8434   1.606   6.396   5.376  0.4225  0.9764 -0.9612
 2331SOL    HW2 8435   1.636   6.543   5.360 -2.0819  1.6319 -0.0650
 2332SOL     OW 8436   3.768   2.916   1.259  0.1306  0.5627  0.4642
 2332SOL    HW1 8437   3.772   2.961   1.344  0.3646  0.9057  0.2697
 2332SOL    HW2 8438   3.857   2.920   1.225  0.1244  0.0623  0.3892
 2333SOL     OW 8439   2.081   4.821   9.264 -0.4114 -0.2508 -0.3345
 2333SOL    HW1 8440   2.142   4.894   9.253  2.7967 -2.5489  0.5986
 2333SOL    HW2 8441   2.063   4.791   9.175 -0.2528  0.5405 -0.6382
 2334SOL     OW 8442   1.566   7.677   6.704 -0.0714 -0.7843  0.3717
 2334SOL    HW1 8443   1.492   7.712   6.653  0.7017  0.5400  0.1062
 2334SOL    HW2 8444   1.551   7.707   6.793  0.2517 -0.3415  0.2773
 2335SOL     OW 8445   2.883   4.803   0.077  0.2931  0.2101 -0.3538
 2335SOL    HW1 8446   2.819   4.761   0.019  1.4064 -1.2609 -0.5808
 2335SOL    HW2 8447   2.881   4.749   0.157  0.6604  0.6553 -0.0389
 2336SOL     OW 8448   3.627   5.679  11.670  0.6240 -0.1323 -0.5412
 2336SOL    HW1 8449   3.578   5.597  11.657  0.5332 -0.1066 -0.3684
 2336SOL    HW2 8450   3.571   5.731  11.728  1.6992 -0.8631  1.2606
 2337SOL     OW 8451   5.531   6.291   6.339 -0.2872 -0.0997  0.1566
 2337SOL    HW1 8452   5.442   6.307   6.307 -0.9852 -1.1502  1.4754
 2337SOL    HW2 8453   5.566   6.379   6.356 -0.8820  0.3486 -0.8474
 2338SOL     OW 8454   0.012   3.544  11.027  0.2163 -0.2316  0.4025
 2338SOL    HW1 8455   0.008   3.453  11.057  0.8579 -0.6483 -0.7193
 2338SOL    HW2 8456   0.099   3.574  11.053  0.2873 -0.1789  0.1082
 2339SOL     OW 8457   5.460   4.013  11.201  0.0991 -0.4442  0.2199
 2339SOL    HW1 8458   5.426   4.057  11.123  0.0772 -0.0441  0.4561
 2339SOL    HW2 8459   5.395   3.945  11.220  0.2648 -0.7505 -0.2974
 2340SOL     OW 8460   0.175   1.545  10.821 -0.1761  0.2649 -0.5217
 2340SOL    HW1 8461   0.110   1.477  10.803 -1.2693  0.8581  0.9430
 2340SOL    HW2 8462   0.145   1.621  10.771 -0.2039  0.3182 -0.4247
 2341SOL     OW 8463   0.565   7.206   8.887  0.2464  0.7602 -0.7121
 2341SOL    HW1 8464   0.555   7.180   8.796 -2.6057  2.1938 -0.9193
 2341SOL    HW2 8465   0.533   7.296   8.890 -2.5034 -0.1279  2.1400
 2342SOL     OW 8466   7.127   5.263   8.793  0.2814  0.1271 -0.2131
 2342SOL    HW1 8467   7.049   5.315   8.775  0.3835 -0.4516 -2.6774
 2342SOL    HW2 8468   7.200   5.321   8.773  0.4135 -0.4189 -1.3831
 2343SOL     OW 8469   4.692   6.323   7.093  0.1076  1.1374  0.4073
 2343SOL    HW1 8470   4.662   6.348   7.181 -0.8331  0.7390  0.2079
 2343SOL    HW2 8471   4.691   6.227   7.094  0.3868  1.1271  0.0495
 2344SOL     OW 8472   0.917   7.053  11.138 -0.2854 -0.2540  0.0489
 2344SOL    HW1 8473   0.945   7.094  11.057 -0.3174  1.9673  1.0806
 2344SOL    HW2 8474   0.834   7.009  11.116 -0.2969  0.3091 -1.1002
 2345SOL     OW 8475   6.740   3.442   0.125  0.0016  0.1959 -0.0189
 2345SOL    HW1 8476   6.834   3.427   0.116 -0.1314 -0.5117 -0.3250
 2345SOL    HW2 8477   6.726   3.531   0.093  0.7739  0.8777  1.4102
 2346SOL     OW 8478   0.020   4.971   5.115 -0.1594 -0.5729 -0.2881
 2346SOL    HW1 8479   0.100   5.017   5.140  1.2301 -3.3397  0.6939
 2346SOL    HW2 8480   0.042   4.928   5.032 -0.8800 -0.8136 -0.3587
 2347SOL     OW 8481   0.473   3.684   2.634  0.3906  0.0012  0.2417
 2347SOL    HW1 8482   0.556   3.638   2.627 -0.0173 -0.5287 -1.6325
 2347SOL    HW2 8483   0.487   3.766   2.587 -0.3086 -0.3573 -0.6124
 2348SOL     OW 8484   2.306   7.746  10.985  0.1205 -0.6507 -0.0608
 2348SOL    HW1 8485   2.305   7.770  10.892  2.2149  0.2356  0.0790
 2348SOL    HW2 8486   2.312   7.829  11.031  1.8414 -1.1492  0.7033
 2349SOL     OW 8487   4.944   3.890   6.567  0.1011  0.1648 -0.2861
 2349SOL    HW1 8488   4.887   3.870   6.493 -0.7848 -2.1334  0.8993
 2349SOL    HW2 8489   4.947   3.985   6.570 -1.8989  0.3497 -1.7328
 2350SOL     OW 8490   4.008   0.243   8.984  0.3157  0.1355  0.8740
 2350SOL    HW1 8491   4.091   0.229   9.029  0.4714 -0.1195  0.5142
 2350SOL    HW2 8492   4.025   0.218   8.893  0.1298  1.0791  0.5726
 2351SOL     OW 8493   7.854   0.686   4.582  0.6692  0.0216 -0.2205
 2351SOL    HW1 8494   7.852   0.743   4.659 -1.2863 -0.7179  0.3523
 2351SOL    HW2 8495   7.946   0.669   4.566  1.3967  3.6164 -0.6576
 2352SOL     OW 8496   5.464   2.320   9.178 -0.2662 -0.0675  0.4778
 2352SOL    HW1 8497   5.469   2.250   9.113  0.1469  0.9771 -0.6551
 2352SOL    HW2 8498   5.511   2.286   9.254 -1.0081 -1.4259  0.3597
 2353SOL     OW 8499   3.883   6.728  10.609 -0.2358 -0.0599  1.1768
 2353SOL    HW1 8500   3.851   6.651  10.656 -1.3822  1.1653  2.5019
 2353SOL    HW2 8501   3.968   6.746  10.650  1.4745 -2.2057 -1.0753
 2354SOL     OW 8502   0.903   1.249   5.070 -0.1864 -0.1665  0.0592
 2354SOL    HW1 8503   0.824   1.279   5.115 -0.3671  0.1830 -0.4728
 2354SOL    HW2 8504   0.972   1.309   5.099 -0.3690  0.2591 -0.3520
 2355SOL     OW 8505   2.995   4.958  10.083 -0.0218  0.0135 -0.1223
 2355SOL    HW1 8506   3.035   4.871  10.075  0.6865  0.2496  0.6909
 2355SOL    HW2 8507   3.029   4.993  10.166 -1.2954  0.5570  0.1988
 2356SOL     OW 8508   0.888   2.150   0.983 -0.2255 -0.4377  0.1050
 2356SOL    HW1 8509   0.800   2.122   0.958 -0.0729  0.4405 -1.6420
 2356SOL    HW2 8510   0.910   2.218   0.919  3.2813 -3.3693 -2.2058
 2357SOL     OW 8511   6.831   1.733   5.731 -0.2479 -0.2655 -0.6166
 2357SOL    HW1 8512   6.863   1.656   5.778 -1.7810 -0.5691 -0.0158
 2357SOL    HW2 8513   6.809   1.700   5.644  1.0424 -0.0536 -1.0335
 2358SOL     OW 8514   4.117   5.833   0.968 -0.3766  0.0866  0.2056
 2358SOL    HW1 8515   4.166   5.839   0.887 -0.4419  2.3034  0.2708
 2358SOL    HW2 8516   4.172   5.875   1.034 -0.1837 -1.9357  1.4515
 2359SOL     OW 8517   1.405   1.726   5.048  0.1799  0.6542 -0.1521
 2359SOL    HW1 8518   1.446   1.643   5.071  0.8075  0.2101 -2.5242
 2359SOL    HW2 8519   1.394   1.772   5.131  1.0398 -1.2329  1.0747
 2360SOL     OW 8520   6.587   1.867   1.580  0.6785  0.1041  0.0969
 2360SOL    HW1 8521   6.548   1.784   1.554 -0.1744  0.2145  0.9688
 2360SOL    HW2 8522   6.676   1.863   1.546  0.3296 -0.7261 -0.7623
 2361SOL     OW 8523   2.458   7.431   6.542 -0.2184  0.8982  0.4354
 2361SOL    HW1 8524   2.459   7.527   6.553  1.2711  0.8982  0.4646
 2361SOL    HW2 8525   2.509   7.398   6.616 -0.2965  0.1077  0.1457
 2362SOL     OW 8526   3.549   3.739   7.971 -0.0565  0.6753 -0.1170
 2362SOL    HW1 8527   3.545   3.682   7.894 -3.1076 -0.1310  0.5346
 2362SOL    HW2 8528   3.563   3.679   8.044  0.5208  1.2134  0.2280
 2363SOL     OW 8529   5.977   4.111  12.436  0.2146  0.1224  0.6153
 2363SOL    HW1 8530   5.986   4.016  12.428  1.5779  0.3132 -0.7528
 2363SOL    HW2 8531   5.885   4.128  12.420 -0.1741 -1.0151  1.5503
 2364SOL     OW 8532   5.539   2.937   3.955  0.3563 -0.1299 -0.3013
 2364SOL    HW1 8533   5.609   2.949   4.019  1.0424  3.2307 -1.4802
 2364SOL    HW2 8534   5.477   2.878   3.998  2.2228 -0.4253  2.1956
 2365SOL     OW 8535   1.992   0.503   0.406 -0.1193 -0.4035  0.2543
 2365SOL    HW1 8536   1.975   0.424   0.354  1.0844 -0.5869  0.0990
 2365SOL    HW2 8537   1.944   0.572   0.361 -1.2388 -1.0528  0.4254
 2366SOL     OW 8538   5.727   2.825   8.607 -0.1999  0.7331 -0.3004
 2366SOL    HW1 8539   5.758   2.840   8.696  0.5294 -0.1982 -0.3810
 2366SOL    HW2 8540   5.747   2.906   8.560 -0.3961  1.1504  0.3283
 2367SOL     OW 8541   0.001   5.635  11.574  0.0852  0.2373 -0.0150
 2367SOL    HW1 8542  -0.052   5.714  11.581 -1.5219 -0.7314 -0.8328
 2367SOL    HW2 8543  -0.059   5.568  11.541  1.4891 -1.2462  0.3183
 2368SOL     OW 8544   1.274   0.626   2.736  0.4124  0.0972  0.7032
 2368SOL    HW1 8545   1.343   0.676   2.693 -0.1699 -0.0720 -0.4761
 2368SOL    HW2 8546   1.218   0.597   2.664  0.5218 -1.9313  1.3656
 2369SOL     OW 8547   4.222   0.679   9.555 -0.1991  0.7688  0.5455
 2369SOL    HW1 8548   4.247   0.771   9.562  0.3297  0.8154 -1.4309
 2369SOL    HW2 8549   4.287   0.641   9.495 -1.6427 -0.3901 -0.3410
 2370SOL     OW 8550   4.144   6.377  11.508 -0.5179 -0.1219 -0.1667
 2370SOL    HW1 8551   4.182   6.293  11.532 -1.8229 -0.0598  2.5598
 2370SOL    HW2 8552   4.105   6.410  11.590 -2.0232  2.0742 -1.6432
 2371SOL     OW 8553   4.959   1.163  12.036  0.0015  0.2707 -0.1123
 2371SOL    HW1 8554   4.915   1.098  11.981 -0.0453 -0.7623  1.0848
 2371SOL    HW2 8555   4.923   1.247  12.008  0.3038 -0.1558 -1.9384
 2372SOL     OW 8556   0.106   2.883  11.249  0.4233 -0.1065 -0.2153
 2372SOL    HW1 8557   0.197   2.885  11.218  1.4791  0.3809  2.6052
 2372SOL    HW2 8558   0.103   2.810  11.311 -0.7766  0.5731  0.5742
 2373SOL     OW 8559   0.088   5.484   5.889 -0.9905 -0.1385 -0.1387
 2373SOL    HW1 8560   0.034   5.513   5.816 -0.1374  1.9004 -0.0425
 2373SOL    HW2 8561   0.028   5.473   5.962 -1.4905  0.5314 -0.4448
 2374SOL     OW 8562   7.883   5.631   5.655  0.9974  0.5395 -0.2869
 2374SOL    HW1 8563   7.952   5.592   5.601  0.9543  1.3722 -0.9812
 2374SOL    HW2 8564   7.801   5.602   5.614  0.9465 -0.0188  0.2161
 2375SOL     OW 8565   6.469   3.249   3.293 -0.1113  0.0267 -0.4079
 2375SOL    HW1 8566   6.464   3.333   3.247 -1.2784 -0.3044 -0.9290
 2375SOL    HW2 8567   6.478   3.273   3.385 -0.7137  0.7313 -0.5192
 2376SOL     OW 8568   6.965   7.588   8.043 -0.3509  0.5533 -0.2508
 2376SOL    HW1 8569   7.027   7.630   7.985 -0.5288  2.0617  0.6143
 2376SOL    HW2 8570   6.890   7.566   7.987  0.2142  0.3405 -0.9325
 2377SOL     OW 8571   1.851   7.913   0.013  0.2520  0.1903  0.1314
 2377SOL    HW1 8572   1.925   7.887  -0.043  0.1427 -0.6133  0.3576
 2377SOL    HW2 8573   1.789   7.841   0.006  0.0577  0.2669  0.9794
 2378SOL     OW 8574   5.156   5.099  12.399  0.1130  0.3579  0.0334
 2378SOL    HW1 8575   5.133   5.186  12.432  1.1458  0.9467 -0.7161
 2378SOL    HW2 8576   5.105   5.038  12.452 -0.4717  1.4146  0.7120
 2379SOL     OW 8577   7.440   3.577   7.550 -0.3384  0.0301  0.5175
 2379SOL    HW1 8578   7.401   3.495   7.519 -1.1749  0.3174  0.7813
 2379SOL    HW2 8579   7.368   3.622   7.595  0.7883 -0.3474  2.8262
 2380SOL     OW 8580   6.841   4.234   6.184  0.0868 -0.0737  0.3382
 2380SOL    HW1 8581   6.796   4.292   6.245 -1.6383 -2.8595  1.9432
 2380SOL    HW2 8582   6.934   4.246   6.204 -0.3653  0.0081  2.7453
 2381SOL     OW 8583   2.211   4.083   9.999  0.1322 -0.1830  0.0376
 2381SOL    HW1 8584   2.117   4.097   9.995  0.0387 -1.0001 -0.9188
 2381SOL    HW2 8585   2.245   4.121   9.919  0.4321 -1.1301 -0.3029
 2382SOL     OW 8586   1.619   3.110   9.946  0.8617  0.6231 -1.0162
 2382SOL    HW1 8587   1.544   3.066   9.906 -0.6452  0.4524  1.7597
 2382SOL    HW2 8588   1.583   3.189   9.985  1.6309 -0.3435  1.9428
 2383SOL     OW 8589   4.865   4.184   3.081  0.2013  0.1089  0.0012
 2383SOL    HW1 8590   4.780   4.182   3.123  1.2470 -1.9452  2.2624
 2383SOL    HW2 8591   4.846   4.204   2.989 -2.6220  0.2530  0.5353
 2384SOL     OW 8592   0.324   4.690   1.534  0.0008  0.2436 -0.0478
 2384SOL    HW1 8593   0.386   4.678   1.462 -0.6714  2.8964 -1.1825
 2384SOL    HW2 8594   0.353   4.627   1.601  0.7893 -2.1867 -2.4718
 2385SOL     OW 8595   3.515   1.267   4.303 -0.0578 -0.2190 -0.2158
 2385SOL    HW1 8596   3.597   1.315   4.314 -0.5189  0.4446  0.3919
 2385SOL    HW2 8597   3.508   1.213   4.381 -0.6139  0.3585  0.1357
 2386SOL     OW 8598   3.675   6.228   3.062 -0.3325 -0.0730 -0.0173
 2386SOL    HW1 8599   3.681   6.307   3.117  1.0934  0.2472 -0.5900
 2386SOL    HW2 8600   3.629   6.256   2.984 -0.9269 -0.1280  0.3064
 2387SOL     OW 8601   7.807   0.074  12.295 -0.0205 -0.1813  0.5677
 2387SOL    HW1 8602   7.788   0.018  12.370 -1.5883  0.4592  0.6836
 2387SOL    HW2 8603   7.822   0.161  12.333 -3.3355  0.7317  0.0579
 2388SOL     OW 8604   7.358   7.866   7.059  0.3829 -0.4365 -0.1740
 2388SOL    HW1 8605   7.397   7.813   6.991  1.0338 -1.0313  0.6420
 2388SOL    HW2 8606   7.305   7.805   7.110  1.1536 -0.3405  0.7844
 2389SOL     OW 8607   7.021   5.290   2.547 -0.6572 -0.1289  0.0915
 2389SOL    HW1 8608   7.059   5.349   2.612 -1.7960  1.2649 -0.4483
 2389SOL    HW2 8609   7.069   5.310   2.466 -1.4996  0.5686 -0.2479
 2390SOL     OW 8610   5.519   7.085   4.256 -0.5083  0.3384  0.5438
 2390SOL    HW1 8611   5.522   7.137   4.175  0.6296  0.7076  0.8092
 2390SOL    HW2 8612   5.610   7.061   4.273 -0.6592  0.6998  1.9881
 2391SOL     OW 8613   3.174   6.854   8.038 -0.0137  0.3561 -0.1334
 2391SOL    HW1 8614   3.260   6.817   8.019 -0.2600  0.4184 -1.5075
 2391SOL    HW2 8615   3.192   6.932   8.089  0.6321 -0.5293  1.0234
 2392SOL     OW 8616   1.431   1.994  11.249  0.3957 -0.4268 -0.3820
 2392SOL    HW1 8617   1.483   1.916  11.266 -1.5550 -1.4902  1.1353
 2392SOL    HW2 8618   1.431   2.042  11.332 -1.5337 -0.8135 -0.0968
 2393SOL     OW 8619   5.817   6.259  12.138  0.3496  0.0171 -0.1627
 2393SOL    HW1 8620   5.866   6.273  12.219 -0.5128  0.3367  0.3182
 2393SOL    HW2 8621   5.779   6.345  12.117 -2.6275 -0.8039  1.2508
 2394SOL     OW 8622   1.223   4.689   8.862  0.6443  0.5000 -0.0371
 2394SOL    HW1 8623   1.160   4.630   8.820 -1.0815 -0.6077  3.7467
 2394SOL    HW2 8624   1.230   4.762   8.800 -0.8610 -1.3867 -2.6781
 2395SOL     OW 8625   1.413   2.456   7.883  0.7250  0.2842  0.4855
 2395SOL    HW1 8626   1.360   2.511   7.825 -0.5842 -1.4079 -0.0034
 2395SOL    HW2 8627   1.503   2.486   7.869  0.5446 -0.3546 -2.8676
 2396SOL     OW 8628   7.320   0.865   6.019 -0.2133  0.0776 -0.5990
 2396SOL    HW1 8629   7.241   0.903   6.059 -0.1023  1.4212 -1.5914
 2396SOL    HW2 8630   7.286   0.797   5.961 -0.3457 -2.3690  2.1128
 2397SOL     OW 8631   7.073   6.501   1.716  0.1059 -0.0991  0.3023
 2397SOL    HW1 8632   7.061   6.560   1.790 -0.1004 -0.8980  0.9209
 2397SOL    HW2 8633   7.006   6.434   1.727  0.8706 -0.9238  0.0916
 2398SOL     OW 8634   2.018   1.445   6.132 -0.2713 -0.1738 -0.2837
 2398SOL    HW1 8635   1.995   1.439   6.224  0.9055  0.1128  0.0487
 2398SOL    HW2 8636   1.938   1.422   6.085 -1.0408  0.2405  0.8012
 2399SOL     OW 8637   2.745   5.484   6.447 -0.0227 -0.1086 -0.2674
 2399SOL    HW1 8638   2.750   5.536   6.366 -0.6867 -0.9704 -0.8797
 2399SOL    HW2 8639   2.790   5.402   6.425  2.2704  0.6780  1.1243
 2400SOL     OW 8640   7.716   3.726   1.624 -0.3047 -0.8715  0.1548
 2400SOL    HW1 8641   7.652   3.665   1.588 -2.3066  1.5892 -0.7311
 2400SOL    HW2 8642   7.767   3.756   1.548 -1.3579  0.7438  0.0321
 2401SOL     OW 8643   5.616   6.118   9.538 -0.0256 -0.5948  0.3422
 2401SOL    HW1 8644   5.584   6.037   9.499  0.5736 -0.9200  0.5136
 2401SOL    HW2 8645   5.555   6.185   9.509  0.1372 -0.9127 -0.7596
 2402SOL     OW 8646   3.026   4.600   5.480 -0.3442  0.1273  0.4287
 2402SOL    HW1 8647   3.102   4.650   5.509 -0.0961 -0.0808  0.1510
 2402SOL    HW2 8648   2.960   4.666   5.459  0.2659  0.3862 -0.7445
 2403SOL     OW 8649   7.823   0.636   0.195 -0.0122  0.2840 -0.6543
 2403SOL    HW1 8650   7.916   0.658   0.188  0.2016 -0.1702  0.6263
 2403SOL    HW2 8651   7.797   0.666   0.282 -0.4329 -1.8509  0.0100
 2404SOL     OW 8652   5.127   3.234   2.869  0.0344 -0.0287  0.6112
 2404SOL    HW1 8653   5.037   3.210   2.894 -0.0072  1.2255  1.7223
 2404SOL    HW2 8654   5.148   3.172   2.798 -1.5410 -0.6252  0.6046
 2405SOL     OW 8655   5.022   5.905   3.070  0.5231  0.4272  0.2726
 2405SOL    HW1 8656   4.987   5.859   3.146 -1.6130  0.3837 -0.6654
 2405SOL    HW2 8657   5.100   5.854   3.045  0.0850 -0.7533  1.1976
 2406SOL     OW 8658   1.715   5.315  11.617  0.4790  0.4022 -0.5097
 2406SOL    HW1 8659   1.666   5.385  11.574 -0.7618 -0.4943 -0.5991
 2406SOL    HW2 8660   1.704   5.333  11.711 -1.9981 -1.0272 -0.4446
 2407SOL     OW 8661   2.794   3.887   0.908  0.2893  0.2965  0.5025
 2407SOL    HW1 8662   2.853   3.818   0.939 -0.1484 -0.0903  0.4802
 2407SOL    HW2 8663   2.706   3.853   0.924  0.0615  0.5321 -0.1991
 2408SOL     OW 8664   4.399   7.835   6.332  0.2745 -0.0427 -0.3750
 2408SOL    HW1 8665   4.483   7.824   6.289 -0.0654  2.1067 -1.7572
 2408SOL    HW2 8666   4.344   7.766   6.295  0.6994  0.2103 -1.5320
 2409SOL     OW 8667   4.290   0.874  11.189  0.3463 -0.1298 -0.1086
 2409SOL    HW1 8668   4.281   0.811  11.260  2.0694 -0.6331 -0.2746
 2409SOL    HW2 8669   4.380   0.863  11.158  0.0485  0.9673 -1.5286
 2410SOL     OW 8670   6.327   7.001   5.248 -0.0767 -0.1627  0.3052
 2410SOL    HW1 8671   6.405   6.989   5.303  0.7000  1.1359 -0.4375
 2410SOL    HW2 8672   6.337   7.089   5.213 -1.9446  0.0557  0.2303
 2411SOL     OW 8673   4.797   2.694   0.961 -0.0298 -0.1371 -0.3372
 2411SOL    HW1 8674   4.876   2.747   0.961  0.3253 -0.6563 -0.7569
 2411SOL    HW2 8675   4.829   2.604   0.968 -0.6033 -0.3266 -0.0715
 2412SOL     OW 8676   2.231   3.443   0.394  0.3869 -0.0740  0.3358
 2412SOL    HW1 8677   2.282   3.422   0.472  0.3249  1.1089  0.7203
 2412SOL    HW2 8678   2.264   3.529   0.366 -1.7031  0.9748  0.8956
 2413SOL     OW 8679   1.177   2.081   4.936  0.0076  0.0185 -0.1503
 2413SOL    HW1 8680   1.113   2.046   4.873  1.1346 -2.2542 -0.1420
 2413SOL    HW2 8681   1.262   2.059   4.898  0.7392  0.5730  1.1148
 2414SOL     OW 8682   4.204   0.810  12.348 -0.0832 -0.8290 -0.7689
 2414SOL    HW1 8683   4.141   0.739  12.336 -1.8026  0.4886  0.0319
 2414SOL    HW2 8684   4.236   0.799  12.438  0.4473 -1.1749 -0.9935
 2415SOL     OW 8685   0.902   0.089   7.406 -0.3715  0.1926  0.3179
 2415SOL    HW1 8686   0.818   0.084   7.360 -0.3757  1.7318  0.0821
 2415SOL    HW2 8687   0.922  -0.001   7.430 -1.1022 -0.4720 -1.3977
 2416SOL     OW 8688   0.123   3.578   2.447  0.0473  0.2319 -0.4404
 2416SOL    HW1 8689   0.098   3.494   2.485  2.2721 -0.0457  0.5113
 2416SOL    HW2 8690   0.159   3.556   2.361 -0.4396  0.3444 -0.6761
 2417SOL     OW 8691   5.600   3.204   6.684 -0.3608 -0.5283 -0.0653
 2417SOL    HW1 8692   5.670   3.208   6.619 -0.5869 -0.0059 -0.2791
 2417SOL    HW2 8693   5.623   3.129   6.739 -0.4426 -1.3023 -1.0542
 2418SOL     OW 8694   3.769   4.859   0.611  0.3559 -0.1709 -0.1186
 2418SOL    HW1 8695   3.754   4.830   0.521 -1.8960 -0.5150  0.3124
 2418SOL    HW2 8696   3.808   4.784   0.654  0.4771 -0.3638 -0.5571
 2419SOL     OW 8697   3.560   2.539   1.847  0.9344  0.2773  0.0427
 2419SOL    HW1 8698   3.646   2.570   1.875  1.7492  0.5442 -2.5418
 2419SOL    HW2 8699   3.577   2.460   1.796 -0.4861 -0.3575  0.4875
 2420SOL     OW 8700   4.280   7.808   3.364 -0.0799  0.1180  0.0855
 2420SOL    HW1 8701   4.361   7.826   3.412 -0.3332 -1.0589  0.9989
 2420SOL    HW2 8702   4.213   7.797   3.433 -1.3763  2.5744 -0.6823
 2421SOL     OW 8703   0.151   6.046  10.889 -0.1839 -0.1558 -0.2842
 2421SOL    HW1 8704   0.223   6.080  10.942  1.2103  1.2207 -2.8620
 2421SOL    HW2 8705   0.082   6.111  10.899  0.0316  0.0492 -0.1076
 2422SOL     OW 8706   7.876   4.532  11.226 -0.2512 -0.0443 -0.0127
 2422SOL    HW1 8707   7.926   4.470  11.172  0.6738  0.1537  0.5824
 2422SOL    HW2 8708   7.876   4.613  11.175  1.0817  0.2989  0.4787
 2423SOL     OW 8709   3.431   5.363   1.647  0.7063  0.1369  0.3774
 2423SOL    HW1 8710   3.413   5.270   1.656  1.4044 -0.1905 -1.2158
 2423SOL    HW2 8711   3.351   5.399   1.608  0.3753  0.2484  1.1436
 2424SOL     OW 8712   1.889   4.773   2.167  0.3888 -0.2912 -0.3579
 2424SOL    HW1 8713   1.917   4.712   2.235  0.8705 -0.1136 -0.3889
 2424SOL    HW2 8714   1.806   4.738   2.134  1.1748 -1.5181 -1.1177
 2425SOL     OW 8715   5.503   4.129   5.148  0.0147 -0.1880  0.0036
 2425SOL    HW1 8716   5.575   4.167   5.098  0.1293 -0.0489  0.2760
 2425SOL    HW2 8717   5.527   4.037   5.159  0.2371 -0.1018  0.2491
 2426SOL     OW 8718   4.991   0.061   9.688 -0.3354  0.0748  0.4574
 2426SOL    HW1 8719   4.964   0.044   9.598  0.7088 -0.1251  0.1581
 2426SOL    HW2 8720   5.087   0.067   9.683 -0.2892  0.4368  1.4940
 2427SOL     OW 8721   4.751   3.921   0.328 -0.5395 -0.2011 -0.0380
 2427SOL    HW1 8722   4.664   3.941   0.363  0.6053 -0.6356  3.4872
 2427SOL    HW2 8723   4.740   3.837   0.284 -2.1640  0.5117 -1.1088
 2428SOL     OW 8724   7.932   3.425  10.192 -0.0174  0.0625  0.5605
 2428SOL    HW1 8725   8.026   3.416  10.181  0.3576  2.3834  1.4123
 2428SOL    HW2 8726   7.897   3.423  10.103  0.7947 -0.8867  0.2453
 2429SOL     OW 8727   5.362   0.710   5.925 -0.1705  0.4775  0.4770
 2429SOL    HW1 8728   5.335   0.622   5.900  1.4133  0.3323 -0.8975
 2429SOL    HW2 8729   5.329   0.766   5.855  1.1449  0.5675 -0.1098
 2430SOL     OW 8730   2.080   5.901   5.490 -0.3179 -0.1166 -0.1356
 2430SOL    HW1 8731   2.136   5.824   5.484 -0.1985 -0.0596  0.2059
 2430SOL    HW2 8732   1.991   5.866   5.488 -0.3911 -0.0575 -3.2249
 2431SOL     OW 8733   1.174   0.206   7.565 -0.2795  0.1800  0.0520
 2431SOL    HW1 8734   1.240   0.154   7.520  0.4880 -0.2158  1.5599
 2431SOL    HW2 8735   1.093   0.155   7.558 -0.2550  0.2878 -1.1203
 2432SOL     OW 8736   7.531   5.926   7.661  0.2990  0.0212  0.5600
 2432SOL    HW1 8737   7.523   5.976   7.742 -0.0410 -0.0021  0.5424
 2432SOL    HW2 8738   7.622   5.940   7.633  0.4800 -0.1272  1.0454
 2433SOL     OW 8739   2.742   3.957   2.724 -0.4126 -0.6019 -0.3558
 2433SOL    HW1 8740   2.732   3.924   2.813  1.4979 -3.1214 -0.9492
 2433SOL    HW2 8741   2.708   3.887   2.668 -0.1832  0.2580 -1.6349
 2434SOL     OW 8742   3.505   1.983   5.387  0.0844 -0.4590  0.5526
 2434SOL    HW1 8743   3.437   2.042   5.355  1.0769  0.7271  0.5219
 2434SOL    HW2 8744   3.506   1.911   5.325 -1.7924 -1.0165  1.1029
 2435SOL     OW 8745   5.453   1.188   2.977  0.0346  0.2040 -0.2214
 2435SOL    HW1 8746   5.451   1.122   2.909  0.1240 -0.5942  0.5401
 2435SOL    HW2 8747   5.540   1.180   3.017  0.1501  0.9633 -0.2942
 2436SOL     OW 8748   7.395   6.632   9.033 -0.2761  0.1287  0.6630
 2436SOL    HW1 8749   7.454   6.614   8.960 -0.1278 -1.8411  1.2053
 2436SOL    HW2 8750   7.354   6.715   9.011  3.5757  2.2823  0.8316
 2437SOL     OW 8751   3.364   0.632  11.526 -0.5416  0.3633 -0.4172
 2437SOL    HW1 8752   3.284   0.580  11.538  0.0824 -0.3348  0.8879
 2437SOL    HW2 8753   3.347   0.712  11.576 -1.7924  1.8503 -3.0034
 2438SOL     OW 8754   6.038   5.445   0.651 -0.3804  0.1276  0.3990
 2438SOL    HW1 8755   6.043   5.351   0.667  0.8504  0.4092  1.8561
 2438SOL    HW2 8756   5.973   5.454   0.581 -0.6631 -1.7738  0.3729
 2439SOL     OW 8757   0.865   7.897   2.007  0.4164  0.2384 -0.2136
 2439SOL    HW1 8758   0.891   7.808   2.029  1.4798  0.7595  0.7090
 2439SOL    HW2 8759   0.778   7.887   1.967 -0.4999 -0.9931  1.9138
 2440SOL     OW 8760   5.750   2.955   4.136  0.2756 -0.3525 -0.1732
 2440SOL    HW1 8761   5.817   2.899   4.175  0.7709  0.3030 -0.0739
 2440SOL    HW2 8762   5.781   3.044   4.150 -0.4219 -0.0498 -0.4824
 2441SOL     OW 8763   4.396   2.702   2.348  0.0826 -0.3535  0.8524
 2441SOL    HW1 8764   4.430   2.613   2.350  0.3733 -0.2578  0.3037
 2441SOL    HW2 8765   4.332   2.705   2.419  0.6734 -0.7536  1.4157
 2442SOL     OW 8766   4.670   2.944   1.267 -0.1669  0.0459  0.2726
 2442SOL    HW1 8767   4.728   2.867   1.258 -0.5512 -0.1656 -0.5261
 2442SOL    HW2 8768   4.636   2.958   1.178  0.3170  1.4768  0.2870
 2443SOL     OW 8769   4.588   7.347  10.711 -0.0410 -0.1559 -0.4048
 2443SOL    HW1 8770   4.608   7.265  10.666 -0.4279  0.4305 -1.6974
 2443SOL    HW2 8771   4.667   7.400  10.701  0.1251 -0.2766  0.2299
 2444SOL     OW 8772   6.975   3.815   9.188 -0.4327 -0.0118 -0.2526
 2444SOL    HW1 8773   7.064   3.791   9.216 -0.2654  0.9141  0.0329
 2444SOL    HW2 8774   6.977   3.805   9.093  0.2547  0.8633 -0.3421
 2445SOL     OW 8775   2.236   1.318   4.347  0.1734  0.5965 -0.4108
 2445SOL    HW1 8776   2.280   1.303   4.263  0.8883 -1.6936  0.2923
 2445SOL    HW2 8777   2.307   1.315   4.412 -0.3151  2.6571  0.2948
 2446SOL     OW 8778   2.822   2.054   8.675 -0.1436 -0.2909 -0.2647
 2446SOL    HW1 8779   2.737   2.093   8.695 -0.0175  0.7374 -1.6052
 2446SOL    HW2 8780   2.883   2.098   8.734 -0.4442 -0.5599  0.2464
 2447SOL     OW 8781   7.581   1.901   2.212  0.3691 -0.2756 -0.1029
 2447SOL    HW1 8782   7.559   1.968   2.147  1.9061  1.0011  0.6145
 2447SOL    HW2 8783   7.607   1.825   2.160  0.6388  0.3952 -0.9747
 2448SOL     OW 8784   6.236   6.934   4.911  0.4395 -0.2976 -0.4680
 2448SOL    HW1 8785   6.291   7.012   4.908 -0.1434  0.1283 -0.2772
 2448SOL    HW2 8786   6.209   6.927   5.003  0.6291 -0.8245 -0.4504
 2449SOL     OW 8787   4.762   0.130  11.334  0.3961  0.2373 -0.4155
 2449SOL    HW1 8788   4.821   0.057  11.315  1.2572  0.6496  0.5392
 2449SOL    HW2 8789   4.764   0.184  11.255 -0.6091 -0.9661 -1.3105
 2450SOL     OW 8790   1.260   7.838   4.258  0.0144  0.2685 -0.0008
 2450SOL    HW1 8791   1.175   7.822   4.299 -0.8620  0.0157 -1.8116
 2450SOL    HW2 8792   1.293   7.751   4.236  0.0990  0.4310 -0.5278
 2451SOL     OW 8793   7.351   1.668   9.138  0.5920 -0.9053 -0.1137
 2451SOL    HW1 8794   7.355   1.573   9.129  0.3179 -1.0064  0.7558
 2451SOL    HW2 8795   7.261   1.686   9.165  0.1799 -0.2494 -1.7880
 2452SOL     OW 8796   3.664   4.530  11.660  0.0722 -0.2585  0.4427
 2452SOL    HW1 8797   3.745   4.533  11.710  0.0884  0.5062  0.3851
 2452SOL    HW2 8798   3.610   4.464  11.704 -0.2809  1.0570  2.0451
 2453SOL     OW 8799   1.326   3.584  11.988 -0.0391 -0.2712  0.2405
 2453SOL    HW1 8800   1.236   3.555  11.971 -0.9131  2.1230  0.4250
 2453SOL    HW2 8801   1.317   3.655  12.052  1.8312  1.0194 -0.8333
 2454SOL     OW 8802   4.899   1.897   4.659 -0.2428  0.2740  0.2314
 2454SOL    HW1 8803   4.819   1.894   4.608 -0.0844  1.7480 -0.1515
 2454SOL    HW2 8804   4.968   1.869   4.599 -0.1624  1.3008 -0.1888
 2455SOL     OW 8805   7.235   6.434   9.151 -0.2700 -0.4253 -0.1849
 2455SOL    HW1 8806   7.235   6.354   9.099 -3.0150  0.2070 -1.3015
 2455SOL    HW2 8807   7.287   6.496   9.100 -0.5645 -0.6527 -0.7731
 2456SOL     OW 8808   6.742   2.031   1.304  0.4287 -0.3709  0.1826
 2456SOL    HW1 8809   6.763   1.938   1.293 -1.9636 -1.0663  0.8476
 2456SOL    HW2 8810   6.808   2.063   1.366  1.5891 -1.4709 -0.4298
 2457SOL     OW 8811   0.780   3.713   6.199  0.0743 -0.3889 -0.6132
 2457SOL    HW1 8812   0.710   3.776   6.181  0.5137  0.7354  1.3097
 2457SOL    HW2 8813   0.734   3.636   6.233 -0.3082 -0.1094 -0.4850
 2458SOL     OW 8814   7.488   7.206   1.504 -0.3500 -0.0212 -0.1459
 2458SOL    HW1 8815   7.519   7.191   1.593  1.0245  1.1703 -0.3865
 2458SOL    HW2 8816   7.481   7.302   1.497 -3.1251 -0.1752 -0.4677
 2459SOL     OW 8817   0.213   5.260   5.125  0.0239  0.2691  0.2947
 2459SOL    HW1 8818   0.282   5.227   5.183 -2.2760 -0.6260  2.6811
 2459SOL    HW2 8819   0.213   5.354   5.140 -0.6300  0.0391  1.9352
 2460SOL     OW 8820   0.772   1.906   0.642  0.2492 -0.1011  0.4408
 2460SOL    HW1 8821   0.774   1.851   0.721 -1.0180 -0.6254  0.1235
 2460SOL    HW2 8822   0.843   1.871   0.588 -1.5491 -2.6299 -0.4924
 2461SOL     OW 8823   5.530   5.223   3.017  0.2731 -0.2266 -0.1221
 2461SOL    HW1 8824   5.486   5.291   2.966  0.6193  1.6826  1.9682
 2461SOL    HW2 8825   5.557   5.158   2.952  1.7972  2.6185 -2.5870
 2462SOL     OW 8826   5.919   4.559   1.054 -0.0153 -0.8067  0.3604
 2462SOL    HW1 8827   5.837   4.600   1.083 -0.8220 -2.7524  1.0381
 2462SOL    HW2 8828   5.916   4.563   0.959 -0.5824 -0.2668  0.3969
 2463SOL     OW 8829   6.301   4.068  10.036 -0.1815  0.1716  0.3578
 2463SOL    HW1 8830   6.331   4.062  10.127  1.3576  0.3814 -0.0923
 2463SOL    HW2 8831   6.209   4.092  10.042 -0.5054 -1.2566  1.8692
 2464SOL     OW 8832   2.563   2.094   2.894 -0.2770 -0.2408 -0.7015
 2464SOL    HW1 8833   2.500   2.092   2.822 -0.2828 -0.3329 -0.6937
 2464SOL    HW2 8834   2.643   2.056   2.858 -0.0500  0.3949 -0.8783
 2465SOL     OW 8835   1.939   4.763   0.876 -0.3412  0.4028  0.0749
 2465SOL    HW1 8836   1.980   4.845   0.905 -1.8140  0.4358  2.2393
 2465SOL    HW2 8837   1.981   4.695   0.928 -1.6335  0.2319  0.9423
 2466SOL     OW 8838   5.676   6.133   2.535  0.0230  0.1109 -0.5993
 2466SOL    HW1 8839   5.639   6.201   2.479  1.5777  1.3532 -0.1969
 2466SOL    HW2 8840   5.722   6.181   2.603  1.4436 -1.3326 -0.4781
 2467SOL     OW 8841   1.859   7.636   5.000 -0.0576 -0.2766  0.3836
 2467SOL    HW1 8842   1.839   7.706   5.062  0.6201 -0.4318  0.7912
 2467SOL    HW2 8843   1.846   7.555   5.050 -2.3106 -0.5459 -0.5031
 2468SOL     OW 8844   6.095   5.586   8.530 -0.0254  0.1440 -0.7236
 2468SOL    HW1 8845   6.045   5.611   8.608  0.9127 -2.5027  0.8375
 2468SOL    HW2 8846   6.086   5.662   8.471 -2.6444  1.3152  0.9868
 2469SOL     OW 8847   5.080   1.220   2.104  0.1761  0.0271  0.3535
 2469SOL    HW1 8848   5.099   1.142   2.051  2.3417  2.2455 -2.4845
 2469SOL    HW2 8849   5.160   1.233   2.155 -0.6665 -0.2414  1.7969
 2470SOL     OW 8850   6.385   7.416   4.566  0.3613 -0.3024 -0.3655
 2470SOL    HW1 8851   6.291   7.399   4.557  0.4884 -0.9430 -0.5767
 2470SOL    HW2 8852   6.419   7.409   4.477  0.8068 -1.3955 -0.1323
 2471SOL     OW 8853   4.084   6.694   2.664  0.7130  0.3932  0.0737
 2471SOL    HW1 8854   4.104   6.681   2.757  1.2012  1.5938  0.1513
 2471SOL    HW2 8855   4.007   6.639   2.648  0.6394  0.1617  1.1771
 2472SOL     OW 8856   5.190   0.574   5.477 -0.4458 -0.1930 -0.0983
 2472SOL    HW1 8857   5.200   0.548   5.385 -1.6083 -1.0617 -0.0077
 2472SOL    HW2 8858   5.254   0.520   5.524  1.2306  1.3195 -0.5066
 2473SOL     OW 8859   5.045   5.750   1.037  0.1383 -0.0718  0.1756
 2473SOL    HW1 8860   4.984   5.816   1.070  0.5815 -0.6086  2.1502
 2473SOL    HW2 8861   4.995   5.669   1.039  0.1012 -0.0828 -0.7445
 2474SOL     OW 8862   0.009   5.389   1.829  0.3399  0.1744  0.5265
 2474SOL    HW1 8863  -0.017   5.464   1.882  1.1386 -0.1565  1.3977
 2474SOL    HW2 8864   0.055   5.427   1.754 -0.0621  0.5933  0.4870
 2475SOL     OW 8865   4.306   1.847   7.306 -0.1702  0.6866 -0.2907
 2475SOL    HW1 8866   4.283   1.837   7.213  0.6485 -1.2989 -0.3275
 2475SOL    HW2 8867   4.237   1.800   7.353  0.2156  0.4147  0.0094
 2476SOL     OW 8868   1.861   2.014   8.488 -0.4796 -0.1418  0.0036
 2476SOL    HW1 8869   1.842   1.999   8.395 -2.0676  0.4377  0.2043
 2476SOL    HW2 8870   1.907   1.935   8.516  0.0454 -0.3183 -1.2670
 2477SOL     OW 8871   5.593   2.701   0.348  0.1448  0.3327 -0.3023
 2477SOL    HW1 8872   5.612   2.607   0.359  1.0358  0.4217 -0.9187
 2477SOL    HW2 8873   5.498   2.707   0.352  0.0594 -0.6516 -0.5629
 2478SOL     OW 8874   0.506   5.868   2.032  0.0962 -0.1658  0.2161
 2478SOL    HW1 8875   0.534   5.870   1.940  0.7644  0.2790  0.4174
 2478SOL    HW2 8876   0.488   5.776   2.049 -1.8658 -0.0301 -0.8734
 2479SOL     OW 8877   4.590   3.181  11.803  0.3175 -0.0276 -0.5422
 2479SOL    HW1 8878   4.526   3.176  11.732  1.8036  1.0779 -2.0391
 2479SOL    HW2 8879   4.669   3.141  11.767  0.0332 -3.2215  1.9288
 2480SOL     OW 8880   5.181   3.073   9.785  0.0541 -0.2920  0.1554
 2480SOL    HW1 8881   5.260   3.062   9.838  0.3182 -0.0304 -0.1823
 2480SOL    HW2 8882   5.117   3.013   9.825 -0.0237  0.5258  1.3027
 2481SOL     OW 8883   0.723   2.151   4.345 -0.3870 -0.3932 -0.1912
 2481SOL    HW1 8884   0.802   2.108   4.378  0.9754  0.9485 -1.5441
 2481SOL    HW2 8885   0.747   2.243   4.336 -1.9683 -0.0190 -1.0327
 2482SOL     OW 8886   7.063   2.533   7.681 -0.3335 -0.1217 -0.4886
 2482SOL    HW1 8887   6.991   2.497   7.629 -0.1334 -0.2407 -0.6845
 2482SOL    HW2 8888   7.031   2.529   7.771 -0.2897 -0.8658 -0.4967
 2483SOL     OW 8889   0.297   0.027   9.178 -0.4502 -0.1019 -0.7699
 2483SOL    HW1 8890   0.321   0.113   9.144 -0.4034 -0.6237 -2.1071
 2483SOL    HW2 8891   0.284   0.041   9.272 -3.4163  2.0587 -1.3457
 2484SOL     OW 8892   6.593   3.697   3.991  0.4626 -0.0295 -0.2718
 2484SOL    HW1 8893   6.581   3.610   4.028 -1.3718  0.5246  0.5394
 2484SOL    HW2 8894   6.578   3.686   3.897  0.3835 -0.6169 -0.1925
 2485SOL     OW 8895   0.415   4.690   1.150 -0.1880 -0.0193  0.3341
 2485SOL    HW1 8896   0.441   4.624   1.214  0.0802 -1.7974 -1.4741
 2485SOL    HW2 8897   0.480   4.681   1.080  0.3118  2.7440  0.3415
 2486SOL     OW 8898   0.260   0.583   9.817  0.0459 -0.1388  0.2318
 2486SOL    HW1 8899   0.330   0.525   9.788 -0.4194 -0.2251 -0.7420
 2486SOL    HW2 8900   0.233   0.548   9.902  1.9043  0.5420  1.1661
 2487SOL     OW 8901   6.431   2.337  11.825  0.1937 -0.3573  0.0958
 2487SOL    HW1 8902   6.426   2.342  11.920  0.9591 -2.2485  0.2684
 2487SOL    HW2 8903   6.339   2.338  11.796 -0.0330  0.5726  0.7971
 2488SOL     OW 8904   0.402   0.067   5.191 -0.1183  0.3018  0.2891
 2488SOL    HW1 8905   0.323   0.053   5.244 -0.5469 -1.3456 -0.6958
 2488SOL    HW2 8906   0.437   0.150   5.221 -2.2270  1.0766  0.7636
 2489SOL     OW 8907   5.845   1.173  11.319 -0.4680 -0.5011  0.0410
 2489SOL    HW1 8908   5.750   1.164  11.327 -0.3052 -1.2359  1.6158
 2489SOL    HW2 8909   5.875   1.186  11.409  0.9025  0.1302 -0.4741
 2490SOL     OW 8910   1.957   7.136  10.509 -0.5007 -0.1541  0.0759
 2490SOL    HW1 8911   1.906   7.165  10.585  0.0720 -1.1020  0.8337
 2490SOL    HW2 8912   2.047   7.133  10.540 -0.1986 -0.1053 -0.7792
 2491SOL     OW 8913   1.737   3.290  10.413 -0.0768 -0.0096  0.1792
 2491SOL    HW1 8914   1.778   3.331  10.337  0.8536  0.8159  1.0990
 2491SOL    HW2 8915   1.713   3.363  10.470 -0.0889 -0.6473  1.0098
 2492SOL     OW 8916   3.305   5.836   6.718  0.3707 -0.2936  0.0397
 2492SOL    HW1 8917   3.381   5.859   6.665  1.5610 -0.6368  1.5396
 2492SOL    HW2 8918   3.244   5.797   6.656  1.4309 -0.0627 -1.1949
 2493SOL     OW 8919   7.161   2.074   6.806  0.6111 -0.1410  0.1262
 2493SOL    HW1 8920   7.096   2.007   6.828  0.3575  0.1196  0.1818
 2493SOL    HW2 8921   7.141   2.147   6.865  1.4065 -0.3235  0.6375
 2494SOL     OW 8922   3.385   5.609   9.136  0.2985 -0.0526  0.0911
 2494SOL    HW1 8923   3.347   5.552   9.203 -0.5572  1.0663  0.6002
 2494SOL    HW2 8924   3.362   5.567   9.053 -2.2347  0.5987  0.3595
 2495SOL     OW 8925   4.483   3.528   7.415 -0.0812 -0.1679  0.0576
 2495SOL    HW1 8926   4.474   3.473   7.337 -1.0048 -0.1359  0.1275
 2495SOL    HW2 8927   4.463   3.616   7.385  1.4882  0.1568 -0.0711
 2496SOL     OW 8928   2.777   1.143   2.819 -0.0968 -0.5623  0.6908
 2496SOL    HW1 8929   2.763   1.226   2.865 -0.7465 -1.6673  2.6122
 2496SOL    HW2 8930   2.691   1.121   2.782  0.0437 -0.4317  0.2893
 2497SOL     OW 8931   3.040   4.461   9.775  0.3362 -0.2574  0.0133
 2497SOL    HW1 8932   3.092   4.381   9.769 -0.7493 -1.0157  0.3819
 2497SOL    HW2 8933   3.023   4.471   9.869  0.2967  0.3012 -0.0516
 2498SOL     OW 8934   1.199   4.020   1.722 -0.2161  0.5192  0.0771
 2498SOL    HW1 8935   1.286   3.985   1.739 -1.0658 -2.1247 -0.6792
 2498SOL    HW2 8936   1.143   3.978   1.788 -1.0029  2.0445  0.4421
 2499SOL     OW 8937   5.375   1.363   6.384  0.1341  0.0786  0.2110
 2499SOL    HW1 8938   5.355   1.298   6.451 -1.0547 -0.5391 -0.6947
 2499SOL    HW2 8939   5.462   1.337   6.351  0.3075 -0.1721  0.8512
 2500SOL     OW 8940   6.580   2.162   1.152 -0.6038 -0.0985  0.2950
 2500SOL    HW1 8941   6.643   2.112   1.204 -0.8151 -1.0138 -0.3164
 2500SOL    HW2 8942   6.613   2.156   1.062  0.1018  1.9775  0.3562
 2501SOL     OW 8943   2.390   3.820   6.048  0.3537 -0.1214 -0.4770
 2501SOL    HW1 8944   2.402   3.769   6.128 -0.2054  1.0136  0.3509
 2501SOL    HW2 8945   2.469   3.802   5.997  1.2472  0.0081  0.8180
 2502SOL     OW 8946   5.095   3.051  11.607  0.5458  0.5132  0.7740
 2502SOL    HW1 8947   5.107   2.979  11.545 -1.4617  0.4621  0.3895
 2502SOL    HW2 8948   5.137   3.020  11.688  1.2576 -0.3356  0.0949
 2503SOL     OW 8949   0.248   0.452   3.853  0.5251 -0.5157  0.2776
 2503SOL    HW1 8950   0.317   0.507   3.817  1.3391 -1.8973 -0.3789
 2503SOL    HW2 8951   0.289   0.366   3.864 -0.2184 -0.6308  2.8259
 2504SOL     OW 8952   7.090   6.047   5.552  0.3236 -0.6874  0.3988
 2504SOL    HW1 8953   7.021   6.110   5.531 -0.0789 -1.6732 -1.4161
 2504SOL    HW2 8954   7.044   5.965   5.569  1.0100 -1.6993 -2.1293
 2505SOL     OW 8955   3.439   2.303  11.201  0.2981  0.0363 -0.0862
 2505SOL    HW1 8956   3.363   2.248  11.180 -0.6336  1.0781  0.4504
 2505SOL    HW2 8957   3.402   2.380  11.244  1.5278  1.2732 -1.1370
 2506SOL     OW 8958   2.274   7.797   4.305 -0.2492  0.2974 -0.2810
 2506SOL    HW1 8959   2.181   7.806   4.326  0.1190 -0.0477  1.6555
 2506SOL    HW2 8960   2.319   7.850   4.372  0.9860 -0.1359 -0.7385
 2507SOL     OW 8961   5.275   0.025   1.521  1.1243 -0.4897  0.2236
 2507SOL    HW1 8962   5.232  -0.020   1.447  1.2757 -0.9687  0.4227
 2507SOL    HW2 8963   5.239  -0.017   1.599 -0.1673  1.0316  0.4851
 2508SOL     OW 8964   0.995   4.431   6.716 -0.1397  0.1419  0.6048
 2508SOL    HW1 8965   1.070   4.445   6.657  0.5423  1.2183  1.6873
 2508SOL    HW2 8966   1.024   4.466   6.800 -1.6685  0.0592  1.1904
 2509SOL     OW 8967   4.158   5.791   1.937 -0.0766  0.0028 -0.4884
 2509SOL    HW1 8968   4.172   5.756   2.025 -3.3800 -1.0813 -0.2752
 2509SOL    HW2 8969   4.211   5.736   1.880  0.8190 -0.3313  0.6327
 2510SOL     OW 8970   5.191   2.649   7.334  0.0120  0.4178 -0.2563
 2510SOL    HW1 8971   5.115   2.594   7.312  0.5892 -0.5443  0.0773
 2510SOL    HW2 8972   5.181   2.727   7.280 -0.3369 -0.4365 -1.4676
 2511SOL     OW 8973   1.084   7.796   1.357  0.0526  0.1651 -0.1242
 2511SOL    HW1 8974   1.095   7.884   1.320  1.7078 -0.0954 -0.3290
 2511SOL    HW2 8975   1.027   7.809   1.433  0.4751  1.4653 -0.0082
 2512SOL     OW 8976   2.029   1.603  11.514  0.0301 -0.1891 -0.7842
 2512SOL    HW1 8977   2.111   1.597  11.465  0.7379 -2.3571  0.5345
 2512SOL    HW2 8978   1.989   1.516  11.505  0.6454 -1.0870  3.0591
 2513SOL     OW 8979   2.382   6.841   5.568  0.4210  0.0667 -0.5820
 2513SOL    HW1 8980   2.359   6.922   5.614  0.6509  0.4221 -1.0919
 2513SOL    HW2 8981   2.363   6.771   5.631 -1.8129  0.3559 -0.8786
 2514SOL     OW 8982   5.307   7.408   7.592 -0.2313  0.1971  0.3415
 2514SOL    HW1 8983   5.295   7.322   7.632  1.3428  0.2238  0.9576
 2514SOL    HW2 8984   5.265   7.402   7.507 -0.0307 -1.2351  0.3232
 2515SOL     OW 8985   6.929   7.701  11.849 -0.4686 -0.0292 -0.1714
 2515SOL    HW1 8986   6.999   7.725  11.788 -0.1715  1.0468  0.5717
 2515SOL    HW2 8987   6.852   7.691  11.793  0.3182 -1.5734 -1.0493
 2516SOL     OW 8988   1.588   1.111  11.098 -0.2429 -0.2228  0.4236
 2516SOL    HW1 8989   1.656   1.168  11.063 -0.3110  0.5425  1.4747
 2516SOL    HW2 8990   1.597   1.118  11.193 -1.5762 -0.3638  0.5870
 2517SOL     OW 8991   4.823   2.586   9.326 -0.2290 -0.7353 -1.0049
 2517SOL    HW1 8992   4.733   2.593   9.294 -0.4484  0.5674 -0.1284
 2517SOL    HW2 8993   4.835   2.662   9.382  0.5617 -2.2755  1.0193
 2518SOL     OW 8994   4.254   4.949   0.274  0.2952 -0.2316  0.7579
 2518SOL    HW1 8995   4.277   4.863   0.239 -0.8156  0.2740 -1.3504
 2518SOL    HW2 8996   4.158   4.952   0.272  0.3045  1.0081  0.8980
 2519SOL     OW 8997   7.756   5.851  10.802  0.4629  0.0757 -0.7953
 2519SOL    HW1 8998   7.758   5.810  10.716  0.0704 -2.4232  0.2873
 2519SOL    HW2 8999   7.727   5.781  10.861  1.9558  1.3020  1.5632
 2520SOL     OW 9000   5.360   0.256   7.176 -0.1875  0.3951  0.0885
 2520SOL    HW1 9001   5.342   0.243   7.269  2.0534 -1.0576  0.4173
 2520SOL    HW2 9002   5.449   0.293   7.175  0.1578 -0.4217 -1.4692
 2521SOL     OW 9003   3.457   4.214   3.452  0.5001 -0.0013  0.2226
 2521SOL    HW1 9004   3.372   4.245   3.421  0.5810 -0.0100 -0.0073
 2521SOL    HW2 9005   3.508   4.294   3.465  0.9467 -0.0605 -1.0546
 2522SOL     OW 9006   2.492   4.866   3.576  0.4216  0.2971  0.5032
 2522SOL    HW1 9007   2.454   4.909   3.653 -0.4608 -0.8828  0.7612
 2522SOL    HW2 9008   2.419   4.860   3.514  0.6352 -0.4707  0.3212
 2523SOL     OW 9009   6.162   5.481   3.694 -0.1829 -0.4560  0.0297
 2523SOL    HW1 9010   6.217   5.558   3.679  0.8820 -1.2249 -0.1616
 2523SOL    HW2 9011   6.168   5.431   3.612 -0.3680 -1.0429  0.3705
 2524SOL     OW 9012   5.095   2.150   9.618  0.0475 -0.1105  0.1929
 2524SOL    HW1 9013   5.024   2.160   9.555  0.1367  0.9256  0.2356
 2524SOL    HW2 9014   5.149   2.228   9.606  1.8567 -1.4162 -0.6635
 2525SOL     OW 9015   5.759   0.089   3.580 -0.2339  0.0011  0.1643
 2525SOL    HW1 9016   5.845   0.048   3.587  0.3121  0.4994 -2.5380
 2525SOL    HW2 9017   5.778   0.181   3.561 -1.2892 -0.1864 -2.0503
 2526SOL     OW 9018   4.650   0.867   6.452 -0.0012  0.4746  0.2332
 2526SOL    HW1 9019   4.566   0.895   6.488 -1.1852 -1.9321 -0.5082
 2526SOL    HW2 9020   4.637   0.869   6.357  0.5345 -0.5415  0.1268
 2527SOL     OW 9021   4.229   0.061  12.002  0.0157 -0.4158  0.0199
 2527SOL    HW1 9022   4.244  -0.031  12.021  1.7892 -0.3880 -0.9782
 2527SOL    HW2 9023   4.301   0.085  11.943  1.2423  2.3057  2.3999
 2528SOL     OW 9024   2.747   3.905   5.581 -0.4130  0.0841  0.2378
 2528SOL    HW1 9025   2.757   3.819   5.621  1.7632 -1.1167 -2.4710
 2528SOL    HW2 9026   2.719   3.886   5.491  0.8184  2.0986 -0.6498
 2529SOL     OW 9027   6.973   3.702   3.198  0.2807 -0.1720  0.3643
 2529SOL    HW1 9028   6.905   3.768   3.186  0.7827  0.4640  0.9345
 2529SOL    HW2 9029   7.011   3.690   3.111  0.7862  0.9606  0.4070
 2530SOL     OW 9030   0.437   3.853   5.176 -0.2059 -0.8409 -0.2117
 2530SOL    HW1 9031   0.528   3.881   5.187 -0.0890 -0.8504 -1.1366
 2530SOL    HW2 9032   0.428   3.781   5.239 -0.5121  1.1316  2.1845
 2531SOL     OW 9033   1.841   0.840  10.725  0.3431 -0.2525  0.0418
 2531SOL    HW1 9034   1.784   0.772  10.762  3.0379 -3.3902 -1.0900
 2531SOL    HW2 9035   1.804   0.857  10.639 -1.3812  1.1851  0.9913
 2532SOL     OW 9036   6.572   1.834   3.800  0.4719 -0.1602  0.1448
 2532SOL    HW1 9037   6.527   1.849   3.883 -1.8931 -1.2503 -0.8825
 2532SOL    HW2 9038   6.597   1.741   3.802  0.7737 -0.0915 -0.2191
 2533SOL     OW 9039   6.704   1.820   4.044  0.5429 -0.0097 -0.1344
 2533SOL    HW1 9040   6.691   1.914   4.041  1.5436  0.1935  1.0438
 2533SOL    HW2 9041   6.628   1.787   4.094  0.6058  0.2692  0.1476
 2534SOL     OW 9042   0.157   4.273   3.787  0.1092  0.4153 -0.4684
 2534SOL    HW1 9043   0.152   4.337   3.717 -1.3856 -2.6185 -3.4084
 2534SOL    HW2 9044   0.223   4.210   3.758 -0.1819 -0.6977  1.1207
 2535SOL     OW 9045   2.935   6.567   2.650 -0.1375  0.0204  0.4679
 2535SOL    HW1 9046   2.854   6.517   2.639  0.0379 -0.4457  1.1974
 2535SOL    HW2 9047   2.908   6.658   2.641 -0.6513 -0.1550  0.1816
 2536SOL     OW 9048   2.798   0.207   1.891 -0.1532 -0.4434  0.2902
 2536SOL    HW1 9049   2.762   0.263   1.960 -1.6575  1.4273 -1.8136
 2536SOL    HW2 9050   2.748   0.232   1.813  2.1356 -1.6947 -1.6960
 2537SOL     OW 9051   0.023   7.925   2.734 -0.7678  0.7113 -0.6405
 2537SOL    HW1 9052  -0.059   7.959   2.699 -1.2224  1.1229  0.7358
 2537SOL    HW2 9053   0.058   7.869   2.665 -2.4316  0.1596 -1.0748
 2538SOL     OW 9054   7.164   3.388  11.643 -0.2843  0.7085 -0.6249
 2538SOL    HW1 9055   7.156   3.329  11.718  0.0025 -1.0997 -1.9534
 2538SOL    HW2 9056   7.255   3.419  11.647 -0.5711  1.4741  0.3469
 2539SOL     OW 9057   1.080   4.440   7.631 -0.1406 -0.1358  0.0348
 2539SOL    HW1 9058   1.126   4.358   7.611  0.4838 -0.1948  1.6086
 2539SOL    HW2 9059   1.140   4.488   7.689 -1.1873  0.7088  0.4454
 2540SOL     OW 9060   0.615   2.177   8.242 -0.1461  0.4961  0.2364
 2540SOL    HW1 9061   0.645   2.152   8.155 -1.8299  1.1327 -0.5647
 2540SOL    HW2 9062   0.663   2.258   8.261  1.5421 -0.5513  0.7048
 2541SOL     OW 9063   4.367   2.427  12.430 -0.3212 -0.3579  0.2246
 2541SOL    HW1 9064   4.287   2.432  12.483  0.6051  0.7057  1.5993
 2541SOL    HW2 9065   4.342   2.467  12.347 -1.1105  0.4390  0.8148
 2542SOL     OW 9066   5.729   0.651   1.078  0.0666 -0.3362 -0.8297
 2542SOL    HW1 9067   5.685   0.614   1.154  1.3454 -0.9185 -0.3407
 2542SOL    HW2 9068   5.748   0.576   1.022  3.8872 -0.7971  0.7849
 2543SOL     OW 9069   4.629   4.675   0.359 -0.3518  0.6099  0.0410
 2543SOL    HW1 9070   4.632   4.609   0.290  0.0709  1.5448 -0.8553
 2543SOL    HW2 9071   4.716   4.672   0.399 -0.7864 -0.3515  0.9619
 2544SOL     OW 9072   2.709   4.737   4.697  0.0405  0.4412 -0.0487
 2544SOL    HW1 9073   2.632   4.694   4.660 -0.1356  0.9123 -0.2235
 2544SOL    HW2 9074   2.783   4.698   4.648 -0.2468  1.7658 -1.6284
 2545SOL     OW 9075   0.342   1.031   4.122  0.1099  0.2119  0.5504
 2545SOL    HW1 9076   0.255   1.048   4.085  1.1173  0.4487 -1.8955
 2545SOL    HW2 9077   0.383   0.972   4.059  1.0973 -1.4467  2.6196
 2546SOL     OW 9078   5.482   4.351  12.267 -0.1857  0.0996  0.3489
 2546SOL    HW1 9079   5.450   4.378  12.181  0.6255 -1.8570 -0.6408
 2546SOL    HW2 9080   5.518   4.431  12.305  1.5785  0.6145 -2.1333
 2547SOL     OW 9081   4.812   4.706   9.991 -0.2298 -0.0662 -0.1861
 2547SOL    HW1 9082   4.826   4.672   9.903 -0.6872  1.0644 -0.7070
 2547SOL    HW2 9083   4.900   4.723  10.025 -0.0542 -0.5408 -0.3967
 2548SOL     OW 9084   7.249   7.130   2.600 -0.5283 -0.4501  0.0622
 2548SOL    HW1 9085   7.231   7.077   2.677 -0.8967  2.0434  1.7971
 2548SOL    HW2 9086   7.319   7.083   2.554  0.6722 -1.3524  2.6371
 2549SOL     OW 9087   2.784   6.846   9.544  0.0534 -0.2698 -0.0758
 2549SOL    HW1 9088   2.831   6.853   9.627 -0.0338  0.6885 -0.0902
 2549SOL    HW2 9089   2.847   6.876   9.479 -0.1882 -0.1202 -0.2421
 2550SOL     OW 9090   1.801   2.339  12.252  0.0118 -0.4677  0.1108
 2550SOL    HW1 9091   1.705   2.342  12.254 -0.0411 -0.0738 -1.3523
 2550SOL    HW2 9092   1.826   2.419  12.206  0.9812 -1.1452 -0.5876
 2551SOL     OW 9093   0.133   6.655   3.948  0.0412 -0.1982 -0.2432
 2551SOL    HW1 9094   0.210   6.707   3.968 -0.6167  1.1674 -1.1295
 2551SOL    HW2 9095   0.140   6.578   4.005  1.4042  0.4974  0.5649
 2552SOL     OW 9096   4.335   1.770   8.512 -0.4743 -0.1988  0.1191
 2552SOL    HW1 9097   4.348   1.791   8.605  1.9030 -1.2741  0.1202
 2552SOL    HW2 9098   4.330   1.675   8.510 -0.5824 -0.1783 -0.8536
 2553SOL     OW 9099   7.912   4.355   1.906  0.1769  0.2698 -0.4917
 2553SOL    HW1 9100   7.915   4.262   1.880  1.1459  0.1379  0.0407
 2553SOL    HW2 9101   7.926   4.354   2.000  0.4845  0.9699 -0.5245
 2554SOL     OW 9102   1.495   4.856   7.546 -0.7651 -0.1754  0.2518
 2554SOL    HW1 9103   1.529   4.786   7.603 -0.4653 -0.0196  0.2685
 2554SOL    HW2 9104   1.551   4.852   7.469  0.9515  1.6900  1.2955
 2555SOL     OW 9105   7.546   7.333  11.199 -0.2222 -0.0962 -0.0225
 2555SOL    HW1 9106   7.534   7.400  11.132 -0.1367  1.0134  1.0295
 2555SOL    HW2 9107   7.472   7.346  11.259 -0.8977 -1.7687 -0.4492
 2556SOL     OW 9108   7.056   2.466   3.481 -0.3302  0.4702  0.1243
 2556SOL    HW1 9109   7.023   2.535   3.538  0.2613  0.6557  0.2415
 2556SOL    HW2 9110   7.151   2.469   3.491 -0.2356  0.3158 -0.6537
 2557SOL     OW 9111   6.892   5.378   1.957 -0.2951 -0.0695 -0.7543
 2557SOL    HW1 9112   6.950   5.340   2.023 -0.5978 -0.9401 -0.9733
 2557SOL    HW2 9113   6.891   5.313   1.886  1.5823  1.6824 -2.5199
 2558SOL     OW 9114   6.414   7.562   4.801 -0.6076 -0.4743  0.0128
 2558SOL    HW1 9115   6.375   7.644   4.771 -0.1815 -0.8122 -1.5565
 2558SOL    HW2 9116   6.374   7.494   4.747 -1.5033 -1.4312  1.7813
 2559SOL     OW 9117   4.429   3.269   4.238 -0.0471 -0.3418 -0.0185
 2559SOL    HW1 9118   4.385   3.327   4.300 -0.1467 -1.5568  1.0939
 2559SOL    HW2 9119   4.383   3.282   4.155  1.9719  3.5450 -0.7471
 2560SOL     OW 9120   2.236   3.436   6.898 -0.3633 -0.2641 -0.2531
 2560SOL    HW1 9121   2.213   3.513   6.847  0.1066  1.9830  2.6344
 2560SOL    HW2 9122   2.154   3.407   6.938 -0.2225  0.0268  0.2593
 2561SOL     OW 9123   5.752   1.705   9.269 -0.1095  0.4451 -0.5596
 2561SOL    HW1 9124   5.844   1.729   9.282  0.4622 -0.6964 -2.1962
 2561SOL    HW2 9125   5.746   1.615   9.303 -0.8663  0.8406  0.3974
 2562SOL     OW 9126   0.746   1.183  11.013 -0.2427  0.3442  1.0448
 2562SOL    HW1 9127   0.664   1.172  10.965  1.3687 -1.8557 -1.4972
 2562SOL    HW2 9128   0.739   1.124  11.088 -0.6322 -0.5398  0.3190
 2563SOL     OW 9129   2.112   3.929   9.397 -0.5524 -0.1092  0.1650
 2563SOL    HW1 9130   2.057   3.861   9.358  0.2049 -0.0516 -1.0654
 2563SOL    HW2 9131   2.056   4.006   9.401 -0.7355 -0.1918 -0.5964
 2564SOL     OW 9132   7.431   2.309   9.442  0.1561  0.1695 -0.4049
 2564SOL    HW1 9133   7.468   2.325   9.529  0.2528  1.9027 -0.7226
 2564SOL    HW2 9134   7.506   2.314   9.382 -0.1380  0.6368 -0.7426
 2565SOL     OW 9135   4.774   5.022   0.594  0.2992  0.5533  0.0501
 2565SOL    HW1 9136   4.832   4.949   0.616 -0.1142 -0.3505 -1.7210
 2565SOL    HW2 9137   4.726   5.038   0.675 -0.2636 -1.7874  0.2610
 2566SOL     OW 9138   6.852   2.307   6.770 -0.3228  0.2161  0.6241
 2566SOL    HW1 9139   6.919   2.314   6.838 -0.9378  0.7638  1.1841
 2566SOL    HW2 9140   6.823   2.397   6.755 -0.6408  0.0294  0.0891
 2567SOL     OW 9141   2.383   7.654   1.922 -0.1204 -0.2217 -0.2347
 2567SOL    HW1 9142   2.317   7.722   1.921  0.9726  0.8766 -0.7111
 2567SOL    HW2 9143   2.456   7.690   1.871  1.1799 -1.0326  0.9536
 2568SOL     OW 9144   3.269   6.408   7.045 -0.8037 -0.0412  0.9179
 2568SOL    HW1 9145   3.362   6.425   7.061 -1.2238  1.7476  1.6319
 2568SOL    HW2 9146   3.267   6.317   7.015  1.3227  0.2762 -0.4820
 2569SOL     OW 9147   5.548   6.742   7.007  0.1604  0.1182  0.2276
 2569SOL    HW1 9148   5.506   6.687   6.941 -1.0230  1.5857 -0.3095
 2569SOL    HW2 9149   5.476   6.782   7.055  0.9882  0.6449  1.0749
 2570SOL     OW 9150   6.203   3.603   5.992  0.1337  0.7178  0.5137
 2570SOL    HW1 9151   6.132   3.540   5.997 -1.9272  2.9023  0.3200
 2570SOL    HW2 9152   6.217   3.615   5.898  1.4722 -0.3942  0.5394
 2571SOL     OW 9153   6.167   3.924   8.724 -0.0558  0.2386  0.4682
 2571SOL    HW1 9154   6.187   3.989   8.790 -2.7613 -0.6211  2.3054
 2571SOL    HW2 9155   6.109   3.969   8.662 -0.5011  0.0746  0.7601
 2572SOL     OW 9156   5.134   2.882   3.821 -0.3490  0.4031 -0.2630
 2572SOL    HW1 9157   5.041   2.859   3.820 -0.0408 -1.0829  1.2856
 2572SOL    HW2 9158   5.170   2.839   3.744 -0.7663  0.1631 -0.3260
 2573SOL     OW 9159   0.402   7.100   9.734  0.0427 -0.9387 -0.3918
 2573SOL    HW1 9160   0.472   7.047   9.772  0.4990 -0.6950 -0.8805
 2573SOL    HW2 9161   0.390   7.172   9.796  0.7420 -0.5755 -0.6756
 2574SOL     OW 9162   5.617   6.136   1.535 -1.5142  0.7807  0.2320
 2574SOL    HW1 9163   5.692   6.094   1.492 -0.7914  3.2691 -1.1096
 2574SOL    HW2 9164   5.653   6.171   1.617 -2.1455 -1.1444  1.4105
 2575SOL     OW 9165   7.694   3.930   2.463 -0.5028  0.2407 -0.3745
 2575SOL    HW1 9166   7.603   3.915   2.487  0.0665  0.5161  2.2266
 2575SOL    HW2 9167   7.734   3.967   2.542  1.9843 -0.3187 -1.2808
 2576SOL     OW 9168   2.173   7.350   5.470 -0.4429  0.4001  0.2415
 2576SOL    HW1 9169   2.089   7.396   5.469 -0.2212  0.8180  0.4929
 2576SOL    HW2 9170   2.229   7.403   5.527 -0.0884 -0.0170  0.2894
 2577SOL     OW 9171   0.166   4.831  10.359  0.4566 -0.1202  0.0379
 2577SOL    HW1 9172   0.193   4.807  10.270  0.7806  0.0408  0.0878
 2577SOL    HW2 9173   0.242   4.809  10.413  0.3659  0.0474  0.2333
 2578SOL     OW 9174   5.393   5.690   4.825  0.1819 -0.2826 -0.5510
 2578SOL    HW1 9175   5.427   5.675   4.913  2.2614 -0.0510 -1.2668
 2578SOL    HW2 9176   5.451   5.640   4.768  0.7626  1.9312 -2.0283
 2579SOL     OW 9177   4.566   4.371   2.256  0.0976  0.1549 -0.9200
 2579SOL    HW1 9178   4.628   4.298   2.250 -1.6080 -1.6136  1.4295
 2579SOL    HW2 9179   4.512   4.362   2.177 -2.2668 -3.4111  0.8347
 2580SOL     OW 9180   0.505   7.118   6.645  0.6709  0.4402  0.4628
 2580SOL    HW1 9181   0.419   7.105   6.685  0.5631 -1.2264 -0.2215
 2580SOL    HW2 9182   0.503   7.208   6.613 -0.0593  1.0826  2.1888
 2581SOL     OW 9183   4.109   5.911   4.238 -0.0709 -0.4754  0.2458
 2581SOL    HW1 9184   4.127   5.975   4.307 -0.1434  0.0016 -0.1732
 2581SOL    HW2 9185   4.052   5.846   4.280 -0.7340  0.2078  0.4273
 2582SOL     OW 9186   5.486   1.873   0.325 -0.4276  0.2856  0.3410
 2582SOL    HW1 9187   5.412   1.876   0.387 -0.9106  1.7427 -0.2697
 2582SOL    HW2 9188   5.553   1.927   0.366 -1.0155  1.8600 -0.6982
 2583SOL     OW 9189   6.961   1.806   4.999 -0.2995  0.0191  0.1884
 2583SOL    HW1 9190   7.001   1.859   4.930  1.1520  1.3404  1.9375
 2583SOL    HW2 9191   6.893   1.862   5.037 -0.2188 -0.1954  0.6590
 2584SOL     OW 9192   1.356   0.455   6.677  0.6226  0.4001  0.2288
 2584SOL    HW1 9193   1.299   0.392   6.634 -0.4689 -0.4944  2.8031
 2584SOL    HW2 9194   1.445   0.421   6.661  0.1411 -0.9662  0.2977
 2585SOL     OW 9195   2.011   7.536   4.160  0.5482  0.1281  0.1244
 2585SOL    HW1 9196   2.105   7.532   4.176  0.5820  0.3621 -0.0150
 2585SOL    HW2 9197   1.977   7.454   4.197  0.7787  0.1308  0.3476
 2586SOL     OW 9198   6.846   7.126  10.786 -0.9988 -0.3629  0.9924
 2586SOL    HW1 9199   6.791   7.108  10.709  0.6862 -2.0308  0.1052
 2586SOL    HW2 9200   6.807   7.073  10.855 -0.5223 -1.6070  0.3464
 2587SOL     OW 9201   3.035   6.110  12.136  0.5931  0.1454 -0.3421
 2587SOL    HW1 9202   3.104   6.057  12.096  2.2989  2.0001 -0.0313
 2587SOL    HW2 9203   2.964   6.109  12.072  1.4370 -0.7360 -1.3122
 2588SOL     OW 9204   2.662   4.394   5.806  0.5797  0.6287 -0.3833
 2588SOL    HW1 9205   2.617   4.311   5.792  2.3240 -0.7708  1.7429
 2588SOL    HW2 9206   2.742   4.371   5.852  1.1403  3.5042  0.2881
 2589SOL     OW 9207   5.988   5.788   9.086 -0.6867  0.2831 -0.2522
 2589SOL    HW1 9208   6.046   5.737   9.029  0.7659  1.3151  0.2371
 2589SOL    HW2 9209   5.999   5.750   9.173 -3.8588 -2.1185 -0.7137
 2590SOL     OW 9210   5.335   7.251   3.219 -0.0036 -0.1702  0.1835
 2590SOL    HW1 9211   5.328   7.244   3.314  0.2158 -0.6926  0.1635
 2590SOL    HW2 9212   5.389   7.329   3.204 -1.9814  1.3447  0.4267
 2591SOL     OW 9213   0.727   6.884   5.205  0.5581 -0.0401 -0.1764
 2591SOL    HW1 9214   0.759   6.795   5.193 -0.1675 -0.2085 -0.9128
 2591SOL    HW2 9215   0.634   6.880   5.184  0.3016  0.6969  0.7269
 2592SOL     OW 9216   2.563   5.833  11.702 -0.4011 -0.0717 -0.4438
 2592SOL    HW1 9217   2.537   5.741  11.702  1.5459 -0.6810  1.3792
 2592SOL    HW2 9218   2.502   5.875  11.762  0.8654 -0.9243  1.5341
 2593SOL     OW 9219   4.179   4.258   4.509  0.2258 -0.2878  0.2155
 2593SOL    HW1 9220   4.190   4.253   4.604 -0.4024  0.1118  0.3207
 2593SOL    HW2 9221   4.094   4.216   4.493 -0.3572  0.9067  0.0098
 2594SOL     OW 9222   5.778   2.796   7.165  0.4758  0.1302  0.0753
 2594SOL    HW1 9223   5.685   2.818   7.155  0.7185  0.8137 -0.8056
 2594SOL    HW2 9224   5.796   2.737   7.092  1.1787  1.5478 -0.9621
 2595SOL     OW 9225   3.005   7.041   2.651  0.1126 -0.1766 -0.1697
 2595SOL    HW1 9226   3.060   7.062   2.576  0.5674 -1.6890 -0.2883
 2595SOL    HW2 9227   2.922   7.085   2.633  1.1924  2.0136 -0.0611
 2596SOL     OW 9228   7.639   0.993   6.580  0.0082  0.4732 -0.0942
 2596SOL    HW1 9229   7.638   0.916   6.523  2.8771  0.2001  0.0754
 2596SOL    HW2 9230   7.705   1.050   6.542 -0.1987  1.6834  1.2721
 2597SOL     OW 9231   7.369   4.030   1.808  0.0051  0.4852  0.1205
 2597SOL    HW1 9232   7.342   4.064   1.894 -2.3864  0.2901 -0.4854
 2597SOL    HW2 9233   7.435   3.963   1.829 -2.2533 -1.3206  2.0556
 2598SOL     OW 9234   4.695   7.786   1.919 -0.6936 -0.3506 -0.2070
 2598SOL    HW1 9235   4.615   7.760   1.965  0.0211 -0.4784  1.0337
 2598SOL    HW2 9236   4.727   7.862   1.969  0.5298 -0.9848  0.0128
 2599SOL     OW 9237   1.048   2.429   6.847 -0.0663  0.0108  0.0017
 2599SOL    HW1 9238   0.954   2.436   6.833 -0.3371 -0.5493  1.3689
 2599SOL    HW2 9239   1.065   2.482   6.925  0.1458 -2.6010  1.8611
 2600SOL     OW 9240   6.865   5.681  12.082  0.3565  0.2846  0.3292
 2600SOL    HW1 9241   6.883   5.627  12.158  0.7028 -1.7095 -1.0932
 2600SOL    HW2 9242   6.927   5.652  12.016 -0.6992  1.1140 -1.0970
 2601SOL     OW 9243   1.117   3.519   5.106  0.1369  0.3426 -0.0235
 2601SOL    HW1 9244   1.064   3.577   5.051 -1.0857 -0.5807  0.1227
 2601SOL    HW2 9245   1.119   3.436   5.058 -1.4833 -0.6895  1.5377
 2602SOL     OW 9246   0.409   7.758   9.257 -0.1078  0.4941 -0.3955
 2602SOL    HW1 9247   0.391   7.830   9.197 -1.3492  0.7699  0.2905
 2602SOL    HW2 9248   0.348   7.689   9.232  0.7291 -0.1524 -0.7208
 2603SOL     OW 9249   1.054   1.173   9.725  0.3304 -0.0978 -0.1825
 2603SOL    HW1 9250   1.037   1.088   9.685 -0.8769 -0.4855  1.0903
 2603SOL    HW2 9251   1.101   1.153   9.806  0.3763  0.4745 -0.0610
 2604SOL     OW 9252   0.619   7.129  11.938  0.7286 -0.2020 -0.2683
 2604SOL    HW1 9253   0.592   7.051  11.987  1.2185  0.7760  1.7071
 2604SOL    HW2 9254   0.700   7.156  11.981  1.4141  0.4922 -1.9549
 2605SOL     OW 9255   7.756   3.952   1.074 -0.8953 -0.1326  0.2854
 2605SOL    HW1 9256   7.787   3.931   0.986  1.0743 -1.9867  1.3434
 2605SOL    HW2 9257   7.673   3.904   1.083 -0.4630 -0.9640 -0.1174
 2606SOL     OW 9258   6.030   0.321   5.561 -0.3664 -0.3104 -0.1003
 2606SOL    HW1 9259   5.957   0.283   5.610 -0.1418  0.4898  0.9033
 2606SOL    HW2 9260   6.102   0.322   5.624  0.6398 -1.4492 -1.1961
 2607SOL     OW 9261   3.512   3.350   2.383 -0.3733  0.1974  0.0726
 2607SOL    HW1 9262   3.558   3.432   2.363  0.3300 -0.2045 -0.0051
 2607SOL    HW2 9263   3.579   3.283   2.374 -0.8401 -0.3439  0.5729
 2608SOL     OW 9264   6.097   5.397   1.507  0.1624 -0.1584 -0.6405
 2608SOL    HW1 9265   6.175   5.420   1.458  0.0436  0.7418 -0.4118
 2608SOL    HW2 9266   6.117   5.419   1.598 -0.5291  0.5704 -0.6497
 2609SOL     OW 9267   4.057   5.139   1.799  0.1578  0.1886  0.2314
 2609SOL    HW1 9268   3.976   5.097   1.772  0.6975  0.9363 -2.8894
 2609SOL    HW2 9269   4.107   5.069   1.842  0.1963 -1.9648 -2.9631
 2610SOL     OW 9270   7.230   2.090  10.772  0.1223  0.4020  0.0258
 2610SOL    HW1 9271   7.186   2.081  10.688  1.6721  1.2198 -0.9185
 2610SOL    HW2 9272   7.278   2.173  10.765 -0.5388  1.0224  2.1102
 2611SOL     OW 9273   6.418   6.103   2.941  0.4024  0.6822  0.2851
 2611SOL    HW1 9274   6.361   6.176   2.968  1.0130  1.1064  0.4556
 2611SOL    HW2 9275   6.482   6.143   2.881 -1.0304 -0.2698 -2.0139
 2612SOL     OW 9276   1.462   0.013  10.847 -0.0556  0.0192 -0.0948
 2612SOL    HW1 9277   1.530  -0.016  10.909  1.8594  1.3565 -1.4599
 2612SOL    HW2 9278   1.399  -0.059  10.846  1.0090 -1.0327  1.7043
 2613SOL     OW 9279   6.760   4.348   8.310  0.1250  0.0027  0.3353
 2613SOL    HW1 9280   6.852   4.330   8.330  0.2964  0.6243  0.1315
 2613SOL    HW2 9281   6.731   4.273   8.259  0.4477 -0.3123  0.6120
 2614SOL     OW 9282   0.595   1.233   4.089  0.1567  0.3735  0.2758
 2614SOL    HW1 9283   0.533   1.174   4.047  0.3664  0.6877 -0.4957
 2614SOL    HW2 9284   0.557   1.320   4.078  0.1746  0.4556  0.8157
 2615SOL     OW 9285   3.231   6.245   5.777  0.1701  0.5393 -0.2178
 2615SOL    HW1 9286   3.228   6.253   5.873 -1.4229  1.0518 -0.2774
 2615SOL    HW2 9287   3.252   6.333   5.746  0.7428  0.3611 -0.3422
 2616SOL     OW 9288   0.107   5.686   9.283 -0.1746  0.2847  0.3483
 2616SOL    HW1 9289   0.036   5.651   9.229  0.0392  0.1468  0.1583
 2616SOL    HW2 9290   0.092   5.781   9.282  1.0942  0.5278 -1.7947
 2617SOL     OW 9291   4.681   3.666   4.917  0.5273  0.5693  0.5259
 2617SOL    HW1 9292   4.611   3.724   4.887  0.4456  0.4131  0.4156
 2617SOL    HW2 9293   4.740   3.659   4.842 -1.9845 -3.5386 -1.4125
 2618SOL     OW 9294   5.609   6.228   4.219 -0.4471  0.0882  0.3445
 2618SOL    HW1 9295   5.677   6.284   4.256  1.6762 -1.7572 -0.5107
 2618SOL    HW2 9296   5.632   6.220   4.126 -3.0075  0.9466 -0.4467
 2619SOL     OW 9297   0.634   5.999   9.309 -0.1934  0.0509  0.2934
 2619SOL    HW1 9298   0.581   6.023   9.234  0.8347 -1.6310 -1.0504
 2619SOL    HW2 9299   0.664   6.082   9.345 -2.1392  0.9581 -0.0478
 2620SOL     OW 9300   4.363   3.192   8.029 -0.4377  0.5914  0.2917
 2620SOL    HW1 9301   4.272   3.221   8.024 -0.5003  0.3149 -0.2914
 2620SOL    HW2 9302   4.413   3.271   8.052 -0.5926  1.2005 -1.3653
 2621SOL     OW 9303   4.693   2.040   0.993  0.1140 -0.4719 -0.0914
 2621SOL    HW1 9304   4.735   1.998   1.068  1.4833 -2.1901 -1.7361
 2621SOL    HW2 9305   4.644   1.969   0.951  1.1886 -0.1013 -2.0600
 2622SOL     OW 9306   7.412   2.662   3.711 -0.3039  0.8594  0.0779
 2622SOL    HW1 9307   7.404   2.592   3.646  0.5427  1.1761 -0.3864
 2622SOL    HW2 9308   7.324   2.671   3.747 -0.7757  0.5937 -0.9552
 2623SOL     OW 9309   3.537   6.392   7.436 -0.0665 -0.6293 -0.1344
 2623SOL    HW1 9310   3.463   6.345   7.396 -0.4310 -1.7998  1.7617
 2623SOL    HW2 9311   3.539   6.476   7.391 -2.0232 -0.8988 -0.8419
 2624SOL     OW 9312   0.214   0.263   6.532 -0.0886 -0.1651  0.1854
 2624SOL    HW1 9313   0.220   0.348   6.575  1.4573 -0.0519 -0.1687
 2624SOL    HW2 9314   0.182   0.283   6.444 -1.8055 -0.2251  0.7686
 2625SOL     OW 9315   2.466   5.960   7.627  0.0235 -0.7850  0.0643
 2625SOL    HW1 9316   2.554   5.958   7.588  0.0372  1.9792 -0.2526
 2625SOL    HW2 9317   2.417   5.893   7.580  0.9254  0.2470 -2.5201
 2626SOL     OW 9318   1.469   6.349   9.542 -0.1374  0.1328 -0.0640
 2626SOL    HW1 9319   1.376   6.335   9.528 -0.0785 -0.8631  0.4489
 2626SOL    HW2 9320   1.492   6.288   9.612  1.0173 -0.0709 -0.5930
 2627SOL     OW 9321   2.902   4.342   5.619  0.1226 -0.2273 -0.3722
 2627SOL    HW1 9322   2.943   4.308   5.699  1.0672 -1.0241 -1.1781
 2627SOL    HW2 9323   2.808   4.341   5.638  0.3950  1.1027  1.3004
 2628SOL     OW 9324   5.729   5.172   3.911 -0.0575  0.8740 -0.0378
 2628SOL    HW1 9325   5.760   5.082   3.908 -2.0374  0.1902 -2.0394
 2628SOL    HW2 9326   5.719   5.190   4.005 -1.2019 -1.5704  0.3850
 2629SOL     OW 9327   5.755   4.217   5.404 -0.1798  0.2784 -0.4648
 2629SOL    HW1 9328   5.838   4.173   5.421 -1.0939 -0.3723  2.8899
 2629SOL    HW2 9329   5.691   4.146   5.395 -0.6700  0.8166 -1.4094
 2630SOL     OW 9330   4.505   7.486   1.399 -0.0528  0.2715  0.9582
 2630SOL    HW1 9331   4.458   7.427   1.458 -0.5467  2.1351  2.5515
 2630SOL    HW2 9332   4.453   7.486   1.319 -0.0886 -1.3459  0.9551
 2631SOL     OW 9333   5.000   5.019   7.258  0.6776 -0.0715 -0.1388
 2631SOL    HW1 9334   5.069   5.085   7.266  1.6006 -0.8469 -1.4012
 2631SOL    HW2 9335   4.993   5.002   7.164 -1.2786  0.0068 -0.0440
 2632SOL     OW 9336   7.659   2.338   2.116 -0.5665 -0.2456 -0.6203
 2632SOL    HW1 9337   7.572   2.347   2.077 -0.4097  0.2868 -0.8480
 2632SOL    HW2 9338   7.641   2.324   2.209 -0.8933 -0.0370 -0.6489
 2633SOL     OW 9339   0.719   5.877   7.539 -0.3752 -0.2263 -0.0124
 2633SOL    HW1 9340   0.720   5.897   7.445 -0.9828  0.0689  0.0375
 2633SOL    HW2 9341   0.805   5.839   7.556  0.1077  0.6269 -0.4867
 2634SOL     OW 9342   0.781   0.199  11.226  0.0307  0.3426  0.1632
 2634SOL    HW1 9343   0.872   0.177  11.206 -0.1816 -0.0419 -0.3873
 2634SOL    HW2 9344   0.773   0.183  11.320  0.4795  0.1793  0.1750
 2635SOL     OW 9345   1.597   7.291  11.397  0.1176 -0.7276 -0.3251
 2635SOL    HW1 9346   1.653   7.281  11.473  0.2915 -1.9882 -0.6018
 2635SOL    HW2 9347   1.550   7.373  11.412 -0.3152 -1.2562  1.4497
 2636SOL     OW 9348   0.079   0.032   8.091 -0.4588 -0.1472  0.0994
 2636SOL    HW1 9349   0.148  -0.010   8.143 -0.2412  1.6044  1.3021
 2636SOL    HW2 9350   0.116   0.037   8.003  0.4943 -0.2860  0.4732
 2637SOL     OW 9351   5.714   6.178   3.960  0.3543 -0.4119 -0.1057
 2637SOL    HW1 9352   5.732   6.089   3.932  0.1955 -0.6689  0.6007
 2637SOL    HW2 9353   5.732   6.232   3.882  2.5377 -0.8246  0.0475
 2638SOL     OW 9354   6.024   6.563   8.937 -0.2898  0.3232  0.8172
 2638SOL    HW1 9355   6.113   6.577   8.969 -0.6819 -0.9315  2.6553
 2638SOL    HW2 9356   5.976   6.640   8.966 -0.1744  0.1672  1.4473
 2639SOL     OW 9357   2.993   0.120   8.155 -0.6000 -0.5224  0.8986
 2639SOL    HW1 9358   2.926   0.147   8.217 -0.8509  0.8921  0.0589
 2639SOL    HW2 9359   2.957   0.042   8.113 -1.4833 -0.0824  0.8259
 2640SOL     OW 9360   3.128   2.150   3.049  1.0062 -0.2161  0.0358
 2640SOL    HW1 9361   3.125   2.244   3.068 -0.9161 -0.6178  2.0199
 2640SOL    HW2 9362   3.111   2.108   3.133 -1.7975 -2.2720 -1.4166
 2641SOL     OW 9363   6.453   7.103  11.849  0.3462 -0.2413 -0.0633
 2641SOL    HW1 9364   6.530   7.146  11.886 -0.4077  1.4261 -0.3085
 2641SOL    HW2 9365   6.475   7.088  11.758  1.2738 -2.0539  0.4260
 2642SOL     OW 9366   7.055   5.083  11.687  0.1855 -0.6099 -0.1279
 2642SOL    HW1 9367   6.972   5.076  11.735  0.4472  0.0414  0.4425
 2642SOL    HW2 9368   7.115   5.125  11.749  0.7471 -0.4434 -0.7704
 2643SOL     OW 9369   6.041   5.752   3.157  0.4819 -0.3756  0.4848
 2643SOL    HW1 9370   6.116   5.795   3.199  1.2462 -1.0559 -0.1319
 2643SOL    HW2 9371   6.047   5.778   3.066  0.4021 -1.0186  0.2899
 2644SOL     OW 9372   7.736   0.783  10.256  1.0724  0.1822 -0.6338
 2644SOL    HW1 9373   7.812   0.838  10.278 -0.4722  1.2264  2.7121
 2644SOL    HW2 9374   7.668   0.845  10.230  0.4269 -0.4749 -0.5311
 2645SOL     OW 9375   0.137   1.270   3.267 -0.1208 -0.1081  0.0506
 2645SOL    HW1 9376   0.068   1.320   3.222 -0.1183 -0.3294 -0.1997
 2645SOL    HW2 9377   0.198   1.245   3.198  2.0201  2.8731  0.6349
 2646SOL     OW 9378   7.161   1.496   5.147  0.2403  0.1211  0.3341
 2646SOL    HW1 9379   7.195   1.585   5.137 -1.1535  0.6664  0.1638
 2646SOL    HW2 9380   7.119   1.496   5.233 -3.2760  0.9300 -1.2182
 2647SOL     OW 9381   6.838   1.547   1.507 -0.1630  0.0232 -0.4097
 2647SOL    HW1 9382   6.924   1.519   1.538 -0.6686  2.0046  3.3956
 2647SOL    HW2 9383   6.843   1.642   1.504 -1.2547  0.0703 -3.6760
 2648SOL     OW 9384   6.387   4.362   3.204 -0.7527  0.4161  0.4483
 2648SOL    HW1 9385   6.388   4.288   3.265 -0.1398 -1.7866 -2.0346
 2648SOL    HW2 9386   6.308   4.347   3.150  0.1416  0.7319 -1.0039
 2649SOL     OW 9387   1.448   0.979   2.882 -0.7185 -0.3111  0.2896
 2649SOL    HW1 9388   1.466   1.073   2.873 -1.0362 -0.0902  1.7873
 2649SOL    HW2 9389   1.355   0.971   2.859 -0.1751 -0.6443 -2.0883
 2650SOL     OW 9390   2.967   7.382   8.324 -0.3918 -0.2369 -0.2158
 2650SOL    HW1 9391   2.918   7.301   8.340  1.2584 -0.6733  3.7402
 2650SOL    HW2 9392   2.900   7.446   8.299 -2.2433 -2.0171 -0.0413
 2651SOL     OW 9393   6.469   3.512   7.555 -0.3953 -0.4724  0.5132
 2651SOL    HW1 9394   6.514   3.597   7.557 -3.4367  1.3017  0.0420
 2651SOL    HW2 9395   6.396   3.525   7.494 -1.6653 -3.1008  1.3056
 2652SOL     OW 9396   3.293   4.038  11.332  0.4741 -0.1521 -0.3699
 2652SOL    HW1 9397   3.202   4.022  11.356  0.0837 -0.3378 -1.8746
 2652SOL    HW2 9398   3.334   3.951  11.334  0.7101 -0.0225  0.6359
 2653SOL     OW 9399   7.316   5.100   6.319  0.1935 -0.6686 -0.1963
 2653SOL    HW1 9400   7.296   5.018   6.272 -0.0403 -0.1828 -0.9668
 2653SOL    HW2 9401   7.292   5.169   6.257 -0.4746  0.0059  0.7804
 2654SOL     OW 9402   1.724   1.725   9.017  0.4113 -0.2425 -0.2046
 2654SOL    HW1 9403   1.754   1.710   8.928  1.0841 -1.6570  0.2300
 2654SOL    HW2 9404   1.803   1.720   9.070 -0.3069 -2.5588  0.8001
 2655SOL     OW 9405   2.493   4.918   0.945  0.0234 -0.8649  0.1742
 2655SOL    HW1 9406   2.569   4.903   0.887  0.3262  1.0216  0.0286
 2655SOL    HW2 9407   2.531   4.930   1.032 -0.1655 -0.5768  0.2175
 2656SOL     OW 9408   6.300   2.117   1.655 -0.1765 -0.0165 -0.1103
 2656SOL    HW1 9409   6.246   2.192   1.682 -0.2827 -0.7269  1.7900
 2656SOL    HW2 9410   6.336   2.143   1.570 -0.9613  1.7977  0.0622
 2657SOL     OW 9411   1.404   6.223   4.861 -0.2180  0.8328 -0.3794
 2657SOL    HW1 9412   1.460   6.233   4.784 -0.9564 -0.4284 -1.1125
 2657SOL    HW2 9413   1.335   6.163   4.833 -0.9363  0.9493  1.0463
 2658SOL     OW 9414   3.711   7.164   7.678  0.3739  0.0479  0.1654
 2658SOL    HW1 9415   3.754   7.229   7.734 -2.1571  0.6435  1.6327
 2658SOL    HW2 9416   3.624   7.202   7.661 -0.0518 -1.5795 -1.5606
 2659SOL     OW 9417   2.144   5.011   1.938  0.2935  0.6150  0.3056
 2659SOL    HW1 9418   2.056   5.040   1.965  0.7988  1.4263  1.1514
 2659SOL    HW2 9419   2.155   5.045   1.850 -1.3855 -2.0455 -1.0582
 2660SOL     OW 9420   3.941   1.778  11.842  0.3675 -0.0916  0.0211
 2660SOL    HW1 9421   3.971   1.694  11.878  1.8144 -0.3109 -1.5598
 2660SOL    HW2 9422   3.959   1.841  11.911 -0.8888 -1.0712  1.3071
 2661SOL     OW 9423   4.202   1.121   6.185  0.1593 -0.6412  0.1129
 2661SOL    HW1 9424   4.212   1.206   6.228  0.7464 -1.5842  1.9622
 2661SOL    HW2 9425   4.252   1.060   6.240 -1.7818 -2.5348 -0.0726
 2662SOL     OW 9426   5.238   4.007   3.168  0.1436  0.4991 -0.5622
 2662SOL    HW1 9427   5.148   3.991   3.198 -0.2656 -0.3754 -2.1464
 2662SOL    HW2 9428   5.230   4.017   3.073  1.5241  2.0420 -0.5600
 2663SOL     OW 9429   7.416   5.772  10.861 -0.4564 -0.1505  0.9664
 2663SOL    HW1 9430   7.482   5.780  10.930  1.3463 -1.3027 -0.5629
 2663SOL    HW2 9431   7.422   5.854  10.812  0.0272 -0.3536  0.6821
 2664SOL     OW 9432   5.258   3.735   5.220  0.3340 -0.5128  0.7775
 2664SOL    HW1 9433   5.250   3.653   5.171  1.8482  0.1657 -0.7517
 2664SOL    HW2 9434   5.188   3.733   5.284 -1.7072 -1.5797 -1.3313
 2665SOL     OW 9435   3.645   2.853  11.089 -0.1399 -0.4866  0.2362
 2665SOL    HW1 9436   3.639   2.948  11.095  0.0199 -0.3390 -1.4199
 2665SOL    HW2 9437   3.634   2.822  11.179 -1.1946  1.0360  0.6647
 2666SOL     OW 9438   7.238   3.302   2.443 -0.3060 -0.2003 -0.0095
 2666SOL    HW1 9439   7.247   3.293   2.349  3.1900  1.6801 -0.0118
 2666SOL    HW2 9440   7.212   3.215   2.473 -0.2559 -1.1755 -2.5746
 2667SOL     OW 9441   5.473   3.145   8.866 -0.2086  0.0464  0.1874
 2667SOL    HW1 9442   5.542   3.182   8.922 -0.9183 -0.0530  1.1664
 2667SOL    HW2 9443   5.451   3.216   8.806 -0.7741  0.8741  1.3204
 2668SOL     OW 9444   2.230   2.631   2.828  0.5426  0.1569  0.0908
 2668SOL    HW1 9445   2.168   2.633   2.901 -2.1680 -1.3985 -1.9689
 2668SOL    HW2 9446   2.268   2.543   2.830  0.9350  0.3203 -0.0179
 2669SOL     OW 9447   4.182   5.772  10.062  0.1883 -0.3962 -0.1887
 2669SOL    HW1 9448   4.189   5.689  10.111 -0.9631 -1.6562 -2.0261
 2669SOL    HW2 9449   4.113   5.755   9.997 -0.9499  2.4265  0.1409
 2670SOL     OW 9450   1.346   0.400  11.408 -0.2214  0.5561 -0.7092
 2670SOL    HW1 9451   1.321   0.350  11.486 -1.7698  0.8118 -1.0063
 2670SOL    HW2 9452   1.394   0.337  11.354 -0.8511 -0.1922 -0.4238
 2671SOL     OW 9453   1.037   5.328   0.400  0.1973  0.5345  0.3622
 2671SOL    HW1 9454   1.128   5.325   0.428  0.7116  0.0643 -1.2826
 2671SOL    HW2 9455   1.037   5.291   0.311 -1.7581 -0.4805  0.7287
 2672SOL     OW 9456   5.392   4.403  11.137  0.1588  0.5874  0.4337
 2672SOL    HW1 9457   5.472   4.370  11.097  0.0627  0.2834  0.4964
 2672SOL    HW2 9458   5.337   4.428  11.063  0.3936  0.9942  0.3942
 2673SOL     OW 9459   4.498   2.007   5.405  0.0032  0.0773 -0.0574
 2673SOL    HW1 9460   4.473   1.924   5.445  0.7841  0.6006  1.5882
 2673SOL    HW2 9461   4.592   1.999   5.392 -0.0922  0.2990 -0.9225
 2674SOL     OW 9462   2.725   1.219   0.039  0.3624 -0.4906 -0.4592
 2674SOL    HW1 9463   2.789   1.173  -0.016 -1.2538 -0.8932 -2.0995
 2674SOL    HW2 9464   2.686   1.284  -0.020  0.1671  0.6437  0.8727
 2675SOL     OW 9465   5.734   0.578   8.314 -0.4590 -0.5642  0.8062
 2675SOL    HW1 9466   5.746   0.672   8.321  0.4027 -0.4174 -1.8586
 2675SOL    HW2 9467   5.822   0.542   8.306 -0.8023 -1.5970  1.3507
 2676SOL     OW 9468   1.314   3.321   2.214 -0.0637  0.4472 -0.4053
 2676SOL    HW1 9469   1.247   3.266   2.255 -0.8581  2.5356  1.3037
 2676SOL    HW2 9470   1.270   3.359   2.138 -0.7730  1.4936  0.4820
 2677SOL     OW 9471   0.429   0.342   9.042 -0.6042 -0.2441 -0.1500
 2677SOL    HW1 9472   0.394   0.422   9.081 -0.0525  0.4214 -0.9649
 2677SOL    HW2 9473   0.512   0.327   9.088 -0.0554  0.4242 -0.8785
 2678SOL     OW 9474   6.965   2.431   2.007 -0.1852 -0.8594 -0.2112
 2678SOL    HW1 9475   6.889   2.460   1.956  1.1209  1.1579 -1.1766
 2678SOL    HW2 9476   6.929   2.400   2.089 -2.1764 -1.7103 -1.3497
 2679SOL     OW 9477   6.178   4.632   3.778 -0.4372 -0.2749 -0.7463
 2679SOL    HW1 9478   6.105   4.634   3.840  1.3569 -1.0950  1.5751
 2679SOL    HW2 9479   6.224   4.550   3.798  2.2720  1.1406 -0.6029
 2680SOL     OW 9480   5.641   0.726  12.264  0.0666  0.3171  0.3206
 2680SOL    HW1 9481   5.603   0.715  12.177  0.8473  0.0639  0.0038
 2680SOL    HW2 9482   5.735   0.733  12.248  0.0570  2.7808  0.9072
 2681SOL     OW 9483   2.932   7.816   6.171 -0.4114 -0.1377  0.4172
 2681SOL    HW1 9484   3.019   7.855   6.163 -0.2737 -0.6786 -1.0502
 2681SOL    HW2 9485   2.942   7.748   6.238  0.7201 -1.2536 -0.8155
 2682SOL     OW 9486   1.475   1.389  10.270  0.0122 -0.1052  0.1284
 2682SOL    HW1 9487   1.517   1.307  10.243  0.0272 -0.2495  0.5956
 2682SOL    HW2 9488   1.429   1.367  10.351 -0.2996  0.2535  0.0523
 2683SOL     OW 9489   3.299   2.033  11.681  0.0072 -0.4702 -0.1251
 2683SOL    HW1 9490   3.228   1.995  11.628  1.3070 -1.5575 -1.1716
 2683SOL    HW2 9491   3.340   1.958  11.723  2.8407 -0.4061 -2.4728
 2684SOL     OW 9492   7.510   4.280   8.853 -0.3609 -0.1862  0.1635
 2684SOL    HW1 9493   7.455   4.287   8.931 -1.5086 -0.0292 -0.6455
 2684SOL    HW2 9494   7.591   4.325   8.877 -1.9010  2.7941  0.1853
 2685SOL     OW 9495   3.036   4.274   2.700 -0.2920 -0.2476  0.1127
 2685SOL    HW1 9496   3.048   4.179   2.694  0.6183 -0.1416  0.0349
 2685SOL    HW2 9497   3.125   4.309   2.697 -0.4372  0.4875  2.4837
 2686SOL     OW 9498   5.386   3.060   0.926 -0.2242  0.2157 -0.0827
 2686SOL    HW1 9499   5.328   3.060   0.850  0.3892 -0.9745 -0.5756
 2686SOL    HW2 9500   5.334   3.023   0.997 -0.1214 -0.7093 -0.4853
 2687SOL     OW 9501   2.042   0.819   9.611 -0.4317  0.3140  0.3171
 2687SOL    HW1 9502   1.993   0.764   9.550 -0.0630  0.9574 -0.5817
 2687SOL    HW2 9503   1.979   0.886   9.638 -0.9454 -0.6321  1.5778
 2688SOL     OW 9504   5.996   1.121   6.848  0.3647 -0.1693 -0.2066
 2688SOL    HW1 9505   5.979   1.050   6.786 -0.7988 -0.2680  0.2060
 2688SOL    HW2 9506   5.911   1.163   6.860  0.3277 -0.7701  2.0658
 2689SOL     OW 9507   2.451   1.353   2.519 -0.3434 -0.2114 -0.6576
 2689SOL    HW1 9508   2.515   1.370   2.450 -0.6813  0.2527 -0.8623
 2689SOL    HW2 9509   2.369   1.335   2.472 -0.9970  1.8112 -0.3849
 2690SOL     OW 9510   1.461   6.882   7.945  0.0310 -0.0247 -0.1396
 2690SOL    HW1 9511   1.398   6.953   7.959 -0.0249 -0.1521  0.2859
 2690SOL    HW2 9512   1.546   6.923   7.960 -0.0517 -0.2822  1.2067
 2691SOL     OW 9513   1.965   6.072  10.753  0.1417 -0.2434  0.5911
 2691SOL    HW1 9514   1.914   6.128  10.695  0.9378  1.1366  1.1701
 2691SOL    HW2 9515   2.042   6.049  10.702  1.0262  1.2815  1.1854
 2692SOL     OW 9516   6.546   4.186   1.896  0.2199 -0.1493  0.4597
 2692SOL    HW1 9517   6.526   4.229   1.812  0.2627  1.0392  1.0388
 2692SOL    HW2 9518   6.497   4.104   1.893 -1.5173  0.8493  0.1582
 2693SOL     OW 9519   4.594   7.679   0.992 -0.0795 -0.5619  0.2547
 2693SOL    HW1 9520   4.500   7.682   0.977  0.2267  0.6518 -1.7497
 2693SOL    HW2 9521   4.616   7.586   0.988 -0.9204 -0.7225 -1.2801
 2694SOL     OW 9522   6.966   4.837   6.337 -0.1579  0.4163  0.5705
 2694SOL    HW1 9523   6.972   4.816   6.430 -0.4954  0.5740  0.6277
 2694SOL    HW2 9524   6.892   4.897   6.330 -0.8518 -0.4601  0.0547
 2695SOL     OW 9525   1.232   7.687   2.308  0.0430 -0.1803  0.0495
 2695SOL    HW1 9526   1.172   7.752   2.271 -1.0232 -1.0401  0.2333
 2695SOL    HW2 9527   1.319   7.716   2.278 -0.3332  1.5873  0.5097
 2696SOL     OW 9528   7.671   2.048   9.122  0.1387 -0.0404 -0.5687
 2696SOL    HW1 9529   7.763   2.039   9.145  0.0320 -2.8759 -0.8759
 2696SOL    HW2 9530   7.640   2.121   9.176  2.0116 -0.5314  1.3094
 2697SOL     OW 9531   1.684   0.629  10.798  0.5143 -0.2106 -0.5868
 2697SOL    HW1 9532   1.738   0.589  10.866 -1.7214 -1.4727  0.5861
 2697SOL    HW2 9533   1.700   0.575  10.720 -1.5423 -2.8803  0.6625
 2698SOL     OW 9534   6.653   3.098  11.357  0.2102 -0.2022 -0.4268
 2698SOL    HW1 9535   6.580   3.040  11.381  0.4480 -0.5374 -0.5091
 2698SOL    HW2 9536   6.728   3.040  11.350  0.5142  0.1658 -0.2199
 2699SOL     OW 9537   6.272   4.522   0.760  0.2827 -0.1873 -0.4194
 2699SOL    HW1 9538   6.323   4.595   0.796 -0.1432 -0.0729 -0.0351
 2699SOL    HW2 9539   6.218   4.493   0.834 -0.9101  0.3167 -1.0751
 2700SOL     OW 9540   5.627   1.198   1.432  0.2458  0.4229  0.2862
 2700SOL    HW1 9541   5.611   1.290   1.408  1.5407  0.3915 -0.8169
 2700SOL    HW2 9542   5.659   1.203   1.522  0.6320  1.0981  0.1230
 2701SOL     OW 9543   4.903   6.759   3.713 -0.2555  0.0508 -0.0553
 2701SOL    HW1 9544   4.914   6.830   3.776 -0.8970 -0.4778  0.6741
 2701SOL    HW2 9545   4.990   6.723   3.701 -0.2241 -0.3000  1.0989
 2702SOL     OW 9546   2.806   6.555   4.816  0.2313  0.0752  0.2635
 2702SOL    HW1 9547   2.751   6.478   4.822  1.5926 -0.9822 -0.1640
 2702SOL    HW2 9548   2.747   6.625   4.790 -1.1034 -0.7278  1.0306
 2703SOL     OW 9549   3.649   7.140   8.950 -0.5822 -0.0109  0.0411
 2703SOL    HW1 9550   3.696   7.127   9.033 -1.8590  1.2339  1.0120
 2703SOL    HW2 9551   3.644   7.235   8.941 -0.8780 -0.1385 -1.2372
 2704SOL     OW 9552   2.896   6.526  10.374 -0.6280  0.1649 -0.3833
 2704SOL    HW1 9553   2.924   6.445  10.418 -0.8495  0.3759  0.1479
 2704SOL    HW2 9554   2.840   6.570  10.437 -2.5366 -0.4433 -1.5816
 2705SOL     OW 9555   2.221   2.423   7.390  0.0876  0.0082 -0.2620
 2705SOL    HW1 9556   2.301   2.476   7.390 -0.7981  1.4622 -1.6319
 2705SOL    HW2 9557   2.187   2.430   7.479 -0.1475  2.0482 -0.4664
 2706SOL     OW 9558   5.897   4.643   3.495  0.2188  0.1719  0.0111
 2706SOL    HW1 9559   5.866   4.728   3.525  1.4262  0.6015  0.0796
 2706SOL    HW2 9560   5.865   4.581   3.561 -1.7961  0.3602 -0.7316
 2707SOL     OW 9561   6.379   2.863   5.905  0.0132  0.6783 -0.3566
 2707SOL    HW1 9562   6.424   2.820   5.833 -1.3528 -0.0337 -0.8217
 2707SOL    HW2 9563   6.385   2.801   5.978 -1.2808  0.0248 -0.7939
 2708SOL     OW 9564   7.608   6.149   7.931 -0.2782 -0.2077  0.6276
 2708SOL    HW1 9565   7.536   6.087   7.939 -0.5519 -0.7342 -3.5270
 2708SOL    HW2 9566   7.574   6.218   7.875  1.7234  0.8084  0.5730
 2709SOL     OW 9567   4.053   0.301   5.456  0.0670  0.3680 -0.5522
 2709SOL    HW1 9568   4.035   0.233   5.390 -1.5070  0.3994 -0.1892
 2709SOL    HW2 9569   4.148   0.310   5.455  0.1027  0.2498 -2.6992
 2710SOL     OW 9570   5.391   6.074   1.427  0.1420 -0.2945 -0.4962
 2710SOL    HW1 9571   5.471   6.112   1.464  0.4893 -1.6001  0.1636
 2710SOL    HW2 9572   5.334   6.149   1.411  0.3465  0.4307  1.8321
 2711SOL     OW 9573   4.407   7.349   2.307  0.7150  0.3417  0.4251
 2711SOL    HW1 9574   4.484   7.357   2.363  1.2575  1.6179 -0.4743
 2711SOL    HW2 9575   4.420   7.413   2.237 -0.4973 -0.3945 -0.5328
 2712SOL     OW 9576   5.515   6.797   8.648  0.2072  0.5997 -0.0722
 2712SOL    HW1 9577   5.564   6.879   8.655  0.1871  0.6372 -0.3688
 2712SOL    HW2 9578   5.428   6.823   8.619  0.7973  0.3120 -2.2899
 2713SOL     OW 9579   4.863   6.894   6.162 -0.1023 -0.0743 -0.1664
 2713SOL    HW1 9580   4.936   6.834   6.176  0.4965  0.8076  0.5411
 2713SOL    HW2 9581   4.786   6.837   6.155  0.4063 -0.9131  0.8217
 2714SOL     OW 9582   4.433   6.268   9.541  0.2852  0.2666 -0.5105
 2714SOL    HW1 9583   4.412   6.314   9.622 -0.8506  0.2255 -0.7587
 2714SOL    HW2 9584   4.430   6.175   9.565 -0.0376  0.2549 -0.5810
 2715SOL     OW 9585   5.616   3.894   3.968  0.5375  0.2195  0.0794
 2715SOL    HW1 9586   5.529   3.863   3.991  1.5722 -3.1266  0.0456
 2715SOL    HW2 9587   5.674   3.852   4.032  2.3035  0.7001 -1.1309
 2716SOL     OW 9588   7.902   0.097   6.533  0.2670  0.0300  0.4051
 2716SOL    HW1 9589   7.895   0.103   6.438  1.4663  0.0861  0.3032
 2716SOL    HW2 9590   7.812   0.097   6.564 -0.1214  1.1621 -0.6576
 2717SOL     OW 9591   2.338   1.854   5.736 -0.0663  0.0738  0.0073
 2717SOL    HW1 9592   2.405   1.887   5.675 -0.2443 -0.7204 -0.6305
 2717SOL    HW2 9593   2.388   1.814   5.807  0.1491  1.3800  0.6167
 2718SOL     OW 9594   4.518   6.544   7.907  0.8162 -0.4258  0.1094
 2718SOL    HW1 9595   4.587   6.583   7.960  1.0417 -0.3220 -0.2587
 2718SOL    HW2 9596   4.470   6.487   7.967 -0.7160  1.8352  1.1835
 2719SOL     OW 9597   2.274   0.304   1.654 -0.2829 -0.3344 -0.1617
 2719SOL    HW1 9598   2.226   0.351   1.586 -0.8883 -0.3854  0.2171
 2719SOL    HW2 9599   2.365   0.302   1.623 -0.1138  1.5891  0.1031
 2720SOL     OW 9600   3.473   6.464   9.364  0.5726  0.0295  0.5098
 2720SOL    HW1 9601   3.479   6.552   9.401  1.0648  0.2419 -0.0660
 2720SOL    HW2 9602   3.437   6.476   9.277  0.1866 -0.3891  0.6083
 2721SOL     OW 9603   5.991   5.365   7.708  0.4902  0.6960 -0.1251
 2721SOL    HW1 9604   5.957   5.445   7.747  1.1770  0.3657  1.2087
 2721SOL    HW2 9605   5.977   5.376   7.614 -1.2070  1.5165  0.1939
 2722SOL     OW 9606   0.554   1.973   4.909 -0.4526 -0.8506 -0.4989
 2722SOL    HW1 9607   0.624   1.963   4.974 -0.6048 -0.0206 -0.1917
 2722SOL    HW2 9608   0.595   2.018   4.836 -0.6241 -0.5053 -0.3839
 2723SOL     OW 9609   2.851   3.432   4.891 -0.0280  0.3183 -0.1548
 2723SOL    HW1 9610   2.790   3.359   4.901  1.1766 -1.0951 -2.2985
 2723SOL    HW2 9611   2.849   3.477   4.976 -0.4224 -2.5101  1.4653
 2724SOL     OW 9612   6.356   6.499   2.791 -0.0763 -0.2808  0.1891
 2724SOL    HW1 9613   6.310   6.562   2.847 -0.6751 -1.1619  0.7188
 2724SOL    HW2 9614   6.421   6.551   2.744 -0.1725  0.6325  1.0341
 2725SOL     OW 9615   7.872   0.706   2.833  0.0562  0.1916  0.2005
 2725SOL    HW1 9616   7.960   0.699   2.871 -0.5548 -2.1716  1.4166
 2725SOL    HW2 9617   7.813   0.700   2.909 -1.1677 -0.6466 -0.7724
 2726SOL     OW 9618   5.287   6.305  10.353  0.0932  0.0167  0.2865
 2726SOL    HW1 9619   5.192   6.307  10.359  0.1186 -0.7774  1.0206
 2726SOL    HW2 9620   5.306   6.234  10.291  0.2114  0.4075 -0.1404
 2727SOL     OW 9621   0.300   0.395   0.932  0.3550  0.1435 -0.6056
 2727SOL    HW1 9622   0.367   0.414   0.997 -1.5440  1.8758  1.0048
 2727SOL    HW2 9623   0.308   0.464   0.867 -0.8999  1.4236  0.5298
 2728SOL     OW 9624   4.881   3.361   3.447 -0.3219  0.1378 -0.1879
 2728SOL    HW1 9625   4.906   3.271   3.467 -0.0047 -0.1738 -1.8750
 2728SOL    HW2 9626   4.940   3.415   3.501 -0.1212 -0.6387  0.3825
 2729SOL     OW 9627   4.679   0.118   5.474 -0.2752  0.1913 -1.2637
 2729SOL    HW1 9628   4.658   0.034   5.434  2.3464 -0.6370 -1.0718
 2729SOL    HW2 9629   4.689   0.099   5.567  2.4010  0.1686 -1.4703
 2730SOL     OW 9630   5.755   2.821  12.385  0.4111 -0.3736  0.0270
 2730SOL    HW1 9631   5.813   2.860  12.320 -1.8373  0.0442 -1.8867
 2730SOL    HW2 9632   5.771   2.727  12.378  2.8953 -0.1868  1.7188
 2731SOL     OW 9633   1.212   3.195   4.659  0.5514 -0.0191 -0.0930
 2731SOL    HW1 9634   1.261   3.188   4.577 -1.2605  1.2125 -1.3775
 2731SOL    HW2 9635   1.145   3.126   4.652  0.8494 -0.3979  0.7146
 2732SOL     OW 9636   7.054   1.561   7.710  0.0369  0.3283 -1.0503
 2732SOL    HW1 9637   7.016   1.622   7.772  0.6607 -1.3553  1.1254
 2732SOL    HW2 9638   6.979   1.521   7.666 -0.4767  0.7667 -0.5826
 2733SOL     OW 9639   6.654   5.910   0.187  0.0895  0.1591  0.2525
 2733SOL    HW1 9640   6.664   5.818   0.208 -0.3842  0.6686  3.0746
 2733SOL    HW2 9641   6.587   5.911   0.118 -0.0742 -1.5895  0.3382
 2734SOL     OW 9642   0.472   1.491   1.685  0.1333 -0.3468 -0.3420
 2734SOL    HW1 9643   0.544   1.428   1.682 -0.7780 -1.3771 -1.5864
 2734SOL    HW2 9644   0.394   1.441   1.662 -0.7437  1.0572 -0.5809
 2735SOL     OW 9645   7.455   0.662   0.276 -0.4964  0.1918  0.8078
 2735SOL    HW1 9646   7.426   0.708   0.354  0.1315  1.0790  0.5277
 2735SOL    HW2 9647   7.523   0.602   0.307 -0.3331  0.4583  0.9605
 2736SOL     OW 9648   7.717   3.946   7.287  0.7070  0.0767  0.0185
 2736SOL    HW1 9649   7.670   4.028   7.298  2.6915  1.3514 -0.6273
 2736SOL    HW2 9650   7.660   3.881   7.329 -0.2351  1.9648  1.8467
 2737SOL     OW 9651   5.062   6.398   2.253  0.0563 -0.6426 -0.3683
 2737SOL    HW1 9652   5.046   6.443   2.171 -1.6358 -1.4492 -0.5201
 2737SOL    HW2 9653   5.003   6.440   2.316 -2.6958 -3.4756 -0.8473
 2738SOL     OW 9654   6.329   4.012   4.248 -0.1477 -0.8178  0.0487
 2738SOL    HW1 9655   6.399   3.973   4.196 -0.8256  0.4295 -1.9228
 2738SOL    HW2 9656   6.278   3.937   4.279  0.0228 -1.6184 -1.4920
 2739SOL     OW 9657   1.873   6.934   2.945  0.1580  0.3731 -0.4194
 2739SOL    HW1 9658   1.910   6.921   3.033  1.4831  1.3884 -0.7992
 2739SOL    HW2 9659   1.906   7.020   2.918  0.4965 -0.2923 -2.2501
 2740SOL     OW 9660   6.671   1.195   9.045  1.0456  0.5417 -0.3691
 2740SOL    HW1 9661   6.706   1.110   9.071  0.3625 -0.3502 -2.1874
 2740SOL    HW2 9662   6.617   1.222   9.119  1.0602 -0.7237  0.1309
 2741SOL     OW 9663   6.522   6.804   7.942 -0.0977 -0.0009 -0.3393
 2741SOL    HW1 9664   6.467   6.768   7.871 -0.3083  0.5471 -0.4567
 2741SOL    HW2 9665   6.574   6.729   7.971  0.4388 -0.1062 -1.4905
 2742SOL     OW 9666   3.627   1.533  10.520 -0.6672  0.0061  0.2704
 2742SOL    HW1 9667   3.534   1.534  10.544 -0.8999 -0.7198 -0.5209
 2742SOL    HW2 9668   3.630   1.577  10.435 -0.0511  1.3714  0.9687
 2743SOL     OW 9669   5.156   2.722   6.566  0.1495  0.7791 -0.0722
 2743SOL    HW1 9670   5.067   2.690   6.546  0.2718 -0.3240  1.0235
 2743SOL    HW2 9671   5.213   2.672   6.509  0.2688 -0.4634  1.0804
 2744SOL     OW 9672   2.515   5.941   8.945 -0.9434 -0.3040 -0.0609
 2744SOL    HW1 9673   2.584   5.988   8.992 -1.6944  2.3444 -1.4234
 2744SOL    HW2 9674   2.511   5.856   8.989  2.4459 -0.2288  0.7358
 2745SOL     OW 9675   2.898   4.830   6.304  0.0221  0.3543 -0.7054
 2745SOL    HW1 9676   2.924   4.769   6.235  0.6147 -0.0603 -0.1220
 2745SOL    HW2 9677   2.980   4.862   6.341 -0.2636 -0.4761  0.7237
 2746SOL     OW 9678   0.976   0.449  12.044  0.1027  0.2501  0.1716
 2746SOL    HW1 9679   0.982   0.362  12.083  0.7786  0.2701  0.1184
 2746SOL    HW2 9680   1.039   0.448  11.971  0.8755  1.1076  0.7981
 2747SOL     OW 9681   2.573   0.383   4.128  0.2782  0.0408  0.0146
 2747SOL    HW1 9682   2.586   0.433   4.208 -0.2922  0.1109  0.0647
 2747SOL    HW2 9683   2.505   0.430   4.080  2.0298  1.1716 -1.4879
 2748SOL     OW 9684   7.945   4.201   3.958 -0.0405 -0.2096 -0.1302
 2748SOL    HW1 9685   7.946   4.105   3.956 -0.2475 -0.2067 -0.4916
 2748SOL    HW2 9686   8.021   4.227   3.907 -0.9233 -0.1792 -1.4838
 2749SOL     OW 9687   4.093   4.001   2.191  1.1103 -0.0313  0.0173
 2749SOL    HW1 9688   4.124   3.944   2.120 -0.5382 -0.2400 -0.5854
 2749SOL    HW2 9689   4.099   3.946   2.269 -1.5979 -1.5884 -0.7264
 2750SOL     OW 9690   3.571   2.646  12.039 -0.1586 -0.6771  0.2761
 2750SOL    HW1 9691   3.658   2.618  12.011  0.1768  0.8824 -0.3418
 2750SOL    HW2 9692   3.511   2.602  11.979  0.4165  0.7488 -1.4267
 2751SOL     OW 9693   6.012   2.191   9.752 -0.4115  0.0163 -0.3946
 2751SOL    HW1 9694   6.047   2.179   9.840 -0.1467  0.7402 -0.3971
 2751SOL    HW2 9695   6.047   2.274   9.723 -1.0361  0.1040 -0.9310
 2752SOL     OW 9696   7.097   1.046  11.854 -0.9019 -0.0603 -0.4837
 2752SOL    HW1 9697   7.188   1.039  11.826 -1.2634 -1.1565 -1.4581
 2752SOL    HW2 9698   7.054   0.969  11.817 -2.3207  0.6337 -0.3600
 2753SOL     OW 9699   6.304   6.787  10.970 -0.0437 -0.0980 -0.0072
 2753SOL    HW1 9700   6.383   6.733  10.967  0.2172  0.2732  0.2191
 2753SOL    HW2 9701   6.298   6.825  10.882  1.1036  1.4016  0.5204
 2754SOL     OW 9702   2.518   6.564   6.448 -0.3726 -0.1477  0.4579
 2754SOL    HW1 9703   2.587   6.505   6.479 -0.4321  0.1066  1.0966
 2754SOL    HW2 9704   2.544   6.650   6.482  0.9433  0.6778 -2.3664
 2755SOL     OW 9705   2.181   2.254  10.629  0.4709  0.0171  0.1446
 2755SOL    HW1 9706   2.230   2.302  10.562 -0.1881  0.3020 -0.1390
 2755SOL    HW2 9707   2.154   2.173  10.586  1.3583 -0.4974  0.5431
 2756SOL     OW 9708   6.165   1.781  10.818  0.4740  0.7253  0.1531
 2756SOL    HW1 9709   6.240   1.800  10.762 -0.7055  2.0976 -1.0209
 2756SOL    HW2 9710   6.100   1.741  10.759 -0.9778  2.6409  0.3708
 2757SOL     OW 9711   0.659   3.367   7.381 -0.1754 -0.0763  0.3356
 2757SOL    HW1 9712   0.748   3.374   7.413  0.2123  1.0460 -0.9055
 2757SOL    HW2 9713   0.667   3.319   7.298 -0.7472 -0.1270  0.3028
 2758SOL     OW 9714   1.537   2.191   7.633  0.2022  0.1083  0.2203
 2758SOL    HW1 9715   1.532   2.281   7.601 -1.9533 -0.2912 -0.7641
 2758SOL    HW2 9716   1.580   2.197   7.718 -3.2530  2.6179  1.9708
 2759SOL     OW 9717   6.888   4.785   9.942 -0.5947 -0.1748 -0.0067
 2759SOL    HW1 9718   6.981   4.764   9.944 -0.0682  1.9038 -0.2719
 2759SOL    HW2 9719   6.847   4.721  10.000  1.3395  0.4170  2.1372
 2760SOL     OW 9720   5.355   0.208   3.149 -0.2745  0.6620  0.6703
 2760SOL    HW1 9721   5.274   0.156   3.158 -0.3215  0.3971 -0.9176
 2760SOL    HW2 9722   5.347   0.277   3.214 -1.4208  0.1743  1.0745
 2761SOL     OW 9723   6.205   1.804   9.976 -0.4899  0.5538 -0.2148
 2761SOL    HW1 9724   6.271   1.817   9.907 -1.4904  1.8139 -0.9791
 2761SOL    HW2 9725   6.122   1.803   9.930 -1.2095  1.7068  0.9825
 2762SOL     OW 9726   5.587   1.863   2.750 -0.1501 -0.7431 -0.2741
 2762SOL    HW1 9727   5.621   1.891   2.835  2.3031 -2.1346 -0.7026
 2762SOL    HW2 9728   5.519   1.800   2.770 -0.1178 -0.5010  0.6426
 2763SOL     OW 9729   6.316   6.313  10.110 -0.3517  0.0846  0.7850
 2763SOL    HW1 9730   6.236   6.335  10.157 -1.3143  0.5140 -0.9621
 2763SOL    HW2 9731   6.308   6.219  10.092 -0.7668  0.2529  0.0759
 2764SOL     OW 9732   3.935   5.821   2.668  0.7299 -0.2101  0.4935
 2764SOL    HW1 9733   3.997   5.757   2.702  2.5242  0.3629 -1.4687
 2764SOL    HW2 9734   3.951   5.900   2.720  0.3273 -0.5933  1.2080
 2765SOL     OW 9735   5.465   3.436   4.258  0.2937 -0.5174  0.4595
 2765SOL    HW1 9736   5.490   3.520   4.296  0.8392 -0.7499  0.6279
 2765SOL    HW2 9737   5.373   3.425   4.282 -0.8824  1.6388 -2.4605
 2766SOL     OW 9738   7.006   7.080   2.455 -0.2868  0.1065 -0.1132
 2766SOL    HW1 9739   7.081   7.097   2.512 -0.5558  0.8402  0.0335
 2766SOL    HW2 9740   6.975   7.167   2.430 -0.5045 -0.2107 -0.9480
 2767SOL     OW 9741   0.337   5.818   9.908 -1.1016 -0.0915 -0.4364
 2767SOL    HW1 9742   0.284   5.748   9.948 -0.2624 -1.1787 -1.1942
 2767SOL    HW2 9743   0.317   5.813   9.815 -0.9928  0.6726 -0.5089
 2768SOL     OW 9744   1.974   6.355   2.491  0.1614 -0.1263  0.3178
 2768SOL    HW1 9745   1.971   6.259   2.491  1.0629 -0.2014 -1.4176
 2768SOL    HW2 9746   1.927   6.380   2.570 -0.3815 -1.9895  0.6511
 2769SOL     OW 9747   7.159   7.935   2.186 -0.7631  0.3313 -0.3205
 2769SOL    HW1 9748   7.154   8.030   2.197 -1.3955  0.2756 -0.0661
 2769SOL    HW2 9749   7.084   7.901   2.235 -0.0855 -0.3602  0.2761
 2770SOL     OW 9750   2.168   7.315   2.026  0.7047  0.2974 -0.4393
 2770SOL    HW1 9751   2.177   7.245   2.091  1.9334  1.0929  0.2871
 2770SOL    HW2 9752   2.097   7.369   2.059  1.4635  0.8191  0.3993
 2771SOL     OW 9753   0.262   4.115   3.489 -0.6420  0.6066  0.4031
 2771SOL    HW1 9754   0.254   4.052   3.560  0.1192 -0.8302 -0.7252
 2771SOL    HW2 9755   0.314   4.186   3.526  0.9961 -0.7815  0.9147
 2772SOL     OW 9756   7.380   6.042   8.643  0.0436 -0.7864 -0.1436
 2772SOL    HW1 9757   7.370   6.134   8.668  0.6872 -0.4281 -1.1603
 2772SOL    HW2 9758   7.331   5.994   8.710 -0.7306  0.3220  0.1131
 2773SOL     OW 9759   6.609   6.905  10.781 -0.1985  0.0011  0.0488
 2773SOL    HW1 9760   6.678   6.885  10.843  1.0369 -0.8163 -1.5355
 2773SOL    HW2 9761   6.589   6.998  10.796  2.3323  0.6922 -0.4806
 2774SOL     OW 9762   3.066   3.466   9.414 -0.3049 -0.5573  0.2533
 2774SOL    HW1 9763   2.973   3.484   9.404 -0.6548 -1.7033  1.3000
 2774SOL    HW2 9764   3.090   3.507   9.497  0.0937 -0.4426  0.0892
 2775SOL     OW 9765   2.435   7.884   3.660  0.1563 -0.4208 -0.0595
 2775SOL    HW1 9766   2.354   7.907   3.615  0.8566 -0.5225 -1.4229
 2775SOL    HW2 9767   2.409   7.816   3.722 -0.8859 -0.0762 -0.1015
 2776SOL     OW 9768   1.219   6.817  10.575 -0.4376  0.0543  0.1422
 2776SOL    HW1 9769   1.281   6.885  10.601 -0.9180 -0.3690  2.6769
 2776SOL    HW2 9770   1.270   6.736  10.577 -0.3506  0.0705 -0.8901
 2777SOL     OW 9771   3.680   0.643   4.908  0.4884  0.5872 -0.0267
 2777SOL    HW1 9772   3.690   0.734   4.936 -0.1640  0.9456 -0.8781
 2777SOL    HW2 9773   3.683   0.648   4.812  0.3662 -0.2780 -0.0782
 2778SOL     OW 9774   0.327   3.827   6.710  0.2343  0.0522  0.2768
 2778SOL    HW1 9775   0.312   3.916   6.679  0.3160  1.1418  3.0915
 2778SOL    HW2 9776   0.396   3.793   6.654 -1.3508  0.8534 -2.3614
 2779SOL     OW 9777   2.743   5.478   5.883 -0.1186  0.5320 -0.4082
 2779SOL    HW1 9778   2.711   5.568   5.889 -0.6907  0.2469  2.6285
 2779SOL    HW2 9779   2.672   5.430   5.841 -0.5295  1.1944 -0.4814
 2780SOL     OW 9780   7.650   7.695   2.941 -0.0016  0.2209 -0.5298
 2780SOL    HW1 9781   7.559   7.670   2.927 -0.3700  0.8908  0.5338
 2780SOL    HW2 9782   7.684   7.631   3.004 -0.7822  1.9078  1.7559
 2781SOL     OW 9783   5.370   6.251   1.932  0.5398  0.6446  0.6179
 2781SOL    HW1 9784   5.359   6.179   1.994 -0.1068  0.7769  0.6623
 2781SOL    HW2 9785   5.337   6.216   1.849 -0.6132  1.1658  0.8328
 2782SOL     OW 9786   1.633   2.773   8.216 -0.1902  0.2109 -0.4020
 2782SOL    HW1 9787   1.655   2.680   8.210 -0.6221  0.0945 -0.1664
 2782SOL    HW2 9788   1.549   2.775   8.261  0.2487  0.7709  0.4122
 2783SOL     OW 9789   5.068   4.374   2.693  0.1057 -0.3565 -0.1919
 2783SOL    HW1 9790   5.148   4.363   2.744 -0.4609  1.8867  1.3620
 2783SOL    HW2 9791   5.045   4.466   2.704 -1.1328 -0.2059 -3.0047
 2784SOL     OW 9792   6.497   0.364   8.797  0.6637  0.1293 -0.4765
 2784SOL    HW1 9793   6.540   0.331   8.718 -1.1733 -0.2346 -1.3857
 2784SOL    HW2 9794   6.418   0.409   8.764 -0.4607 -0.5571  1.1738
 2785SOL     OW 9795   3.758   5.707  10.628  0.1269  0.0698  0.2496
 2785SOL    HW1 9796   3.701   5.722  10.553 -0.9309  0.1140  1.0386
 2785SOL    HW2 9797   3.700   5.671  10.695  0.9706  0.4190  1.1864
 2786SOL     OW 9798   0.148   3.076   3.488 -0.6564 -0.2959  0.0571
 2786SOL    HW1 9799   0.240   3.095   3.469 -0.7944  0.4016  0.0457
 2786SOL    HW2 9800   0.151   3.014   3.561 -0.1916  0.5667  0.7851
 2787SOL     OW 9801   2.675   6.646   5.542 -0.1919  0.0861  0.1777
 2787SOL    HW1 9802   2.585   6.635   5.571 -0.4995  0.4576 -0.6158
 2787SOL    HW2 9803   2.688   6.578   5.475  0.1423 -0.0174  0.3429
 2788SOL     OW 9804   0.303   0.675   6.667  0.3212  0.2275  0.4447
 2788SOL    HW1 9805   0.357   0.728   6.609 -0.5367  1.5195  0.7854
 2788SOL    HW2 9806   0.363   0.645   6.735  0.6802  1.4020  0.6666
 2789SOL     OW 9807   3.141   6.419   6.363  0.1093  0.0246 -0.9752
 2789SOL    HW1 9808   3.138   6.482   6.435 -1.4568  0.5721 -1.4763
 2789SOL    HW2 9809   3.152   6.473   6.285  1.8316 -0.5654 -1.1779
 2790SOL     OW 9810   4.127   4.106   7.373 -0.3590  0.0892 -0.1482
 2790SOL    HW1 9811   4.097   4.017   7.391  2.2752 -0.5668  1.5639
 2790SOL    HW2 9812   4.065   4.140   7.308 -1.2304 -3.0941 -1.1399
 2791SOL     OW 9813   1.814   0.935   4.233  0.0360 -1.0355 -0.1056
 2791SOL    HW1 9814   1.754   0.904   4.166 -1.3585 -1.1727  1.1646
 2791SOL    HW2 9815   1.767   1.007   4.276  1.6227  0.2522 -0.4106
 2792SOL     OW 9816   6.781   4.739   5.952 -0.1822  0.6938 -0.0907
 2792SOL    HW1 9817   6.849   4.785   5.903  0.5939 -1.1114 -0.8052
 2792SOL    HW2 9818   6.825   4.708   6.031 -0.8892  1.7704  0.7573
 2793SOL     OW 9819   5.635   3.960   8.175 -0.1243  0.6282 -0.0796
 2793SOL    HW1 9820   5.620   4.053   8.190 -1.0983  0.2354  1.6951
 2793SOL    HW2 9821   5.577   3.916   8.238  0.8426 -1.1626 -0.3736
 2794SOL     OW 9822   7.392   5.534   1.532 -0.2420  0.2084  0.5052
 2794SOL    HW1 9823   7.400   5.603   1.465 -0.3981 -1.4130 -1.2744
 2794SOL    HW2 9824   7.300   5.508   1.529  0.0001 -0.6817  0.5055
 2795SOL     OW 9825   1.070   6.232   3.606 -0.2498 -0.0257 -0.3095
 2795SOL    HW1 9826   1.155   6.188   3.610  0.5960  1.1891 -2.7281
 2795SOL    HW2 9827   1.091   6.325   3.596 -1.6795  0.0910 -3.7028
 2796SOL     OW 9828   2.122   5.686   2.576  0.4287  0.1173  0.5226
 2796SOL    HW1 9829   2.168   5.603   2.566 -0.3371 -0.2609  0.0499
 2796SOL    HW2 9830   2.033   5.661   2.600 -0.0558  0.7620 -0.5509
 2797SOL     OW 9831   4.474   0.207   0.431 -0.0739 -0.2036  0.1539
 2797SOL    HW1 9832   4.443   0.296   0.449  0.3002  1.2052 -4.7106
 2797SOL    HW2 9833   4.395   0.153   0.434 -0.6723  0.6948  1.0718
 2798SOL     OW 9834   2.128   3.665   0.538 -0.3015 -0.0460 -0.0043
 2798SOL    HW1 9835   2.138   3.575   0.568  0.8792 -0.3240 -1.1309
 2798SOL    HW2 9836   2.092   3.658   0.450 -0.2817  0.5854 -0.0700
 2799SOL     OW 9837   5.587   1.489   4.655 -0.0189  0.1881 -0.3281
 2799SOL    HW1 9838   5.568   1.542   4.732  0.2143  0.1956 -0.2750
 2799SOL    HW2 9839   5.681   1.502   4.639 -0.1583  0.5319 -0.8744
 2800SOL     OW 9840   2.794   0.145   8.592 -0.2126 -0.5501 -0.2477
 2800SOL    HW1 9841   2.702   0.144   8.617 -0.1481 -1.7691  0.0185
 2800SOL    HW2 9842   2.824   0.056   8.610  1.6399  0.4378  1.9347
 2801SOL     OW 9843   1.021   3.093   5.121 -0.4893  0.2127  0.2956
 2801SOL    HW1 9844   0.938   3.054   5.093  0.2860 -2.1456  1.0164
 2801SOL    HW2 9845   1.034   3.060   5.210  2.9192 -2.7223 -1.0251
 2802SOL     OW 9846   0.061   7.840   8.827 -0.1444 -0.2070  0.1298
 2802SOL    HW1 9847   0.016   7.830   8.743  0.2223 -0.1167 -0.0769
 2802SOL    HW2 9848   0.150   7.809   8.811  0.2830  0.9468  0.1535
 2803SOL     OW 9849   2.218   1.555  11.160 -0.4020 -0.3208 -0.1695
 2803SOL    HW1 9850   2.258   1.540  11.075  1.2213  1.2707  0.2507
 2803SOL    HW2 9851   2.262   1.494  11.219 -1.2444 -1.1412 -0.3617
 2804SOL     OW 9852   4.708   4.579   4.625  0.0039 -0.4290 -0.1201
 2804SOL    HW1 9853   4.703   4.487   4.597 -1.2045 -0.6990  0.8771
 2804SOL    HW2 9854   4.773   4.579   4.696 -0.5653 -0.6781  0.4123
 2805SOL     OW 9855   7.649   7.509   3.631 -0.0369 -0.2011  0.3601
 2805SOL    HW1 9856   7.719   7.446   3.612  0.9552  0.8142  0.4755
 2805SOL    HW2 9857   7.623   7.542   3.545 -0.0249 -0.2251  0.3471
 2806SOL     OW 9858   5.165   7.621   8.655  0.0616 -0.3670  0.2330
 2806SOL    HW1 9859   5.139   7.711   8.638  0.8315  0.0835  1.3197
 2806SOL    HW2 9860   5.086   7.578   8.686  0.0795  0.4110  1.4021
 2807SOL     OW 9861   3.090   7.545   7.983  0.0711 -0.2277  0.6725
 2807SOL    HW1 9862   2.996   7.560   7.968  0.1816  1.9030  1.6328
 2807SOL    HW2 9863   3.131   7.628   7.959  1.4958 -0.5496  1.8594
 2808SOL     OW 9864   4.176   4.276   7.579 -0.3923 -0.6057  0.3895
 2808SOL    HW1 9865   4.164   4.366   7.548  1.5069 -0.1707  0.7832
 2808SOL    HW2 9866   4.142   4.221   7.508 -0.5695  0.4116 -0.3343
 2809SOL     OW 9867   3.757   3.953   1.924  0.6680 -0.2888  0.5209
 2809SOL    HW1 9868   3.823   3.942   1.855  0.2775 -1.5929  0.3357
 2809SOL    HW2 9869   3.793   4.021   1.981  1.1711  0.5765 -0.7582
 2810SOL     OW 9870   4.366   2.050   6.911 -0.3517  0.4148  0.2182
 2810SOL    HW1 9871   4.454   2.030   6.881 -1.4517 -1.5957 -1.9931
 2810SOL    HW2 9872   4.338   1.972   6.959 -0.9615  1.0040  0.8540
 2811SOL     OW 9873   7.538   5.885   1.003  0.7939  0.0839 -0.2637
 2811SOL    HW1 9874   7.458   5.915   1.044  1.2135 -0.8383  1.3050
 2811SOL    HW2 9875   7.608   5.912   1.062  1.3356 -2.1306  0.2182
 2812SOL     OW 9876   5.007   0.869   1.083  0.4072 -0.1225  0.4386
 2812SOL    HW1 9877   5.002   0.809   1.008  1.0077 -1.1023  1.1540
 2812SOL    HW2 9878   4.934   0.843   1.139  0.7645 -0.3137  0.8271
 2813SOL     OW 9879   3.105   0.048   9.412 -0.3799 -0.2024  0.2833
 2813SOL    HW1 9880   3.064   0.130   9.382  0.4451 -0.0046 -0.3093
 2813SOL    HW2 9881   3.130   0.067   9.503 -3.0957 -0.8854  1.2660
 2814SOL     OW 9882   1.013   6.865   2.956  1.1368 -0.1963 -0.0554
 2814SOL    HW1 9883   0.946   6.929   2.980  2.0080  1.0013 -0.7389
 2814SOL    HW2 9884   0.970   6.780   2.970 -0.5819  0.5320 -0.6100
 2815SOL     OW 9885   5.569   6.945   1.002 -0.3582  0.0946 -0.3435
 2815SOL    HW1 9886   5.533   7.033   0.989  0.2820  0.4512  0.1994
 2815SOL    HW2 9887   5.663   6.959   1.015 -0.4719 -0.4922  1.4277
 2816SOL     OW 9888   7.931   2.710   7.774  0.5289 -0.1339 -0.4285
 2816SOL    HW1 9889   7.963   2.669   7.855  0.4829  1.7178  0.5798
 2816SOL    HW2 9890   7.836   2.698   7.777  0.5114  0.0866 -0.1305
 2817SOL     OW 9891   6.525   2.889  10.344 -0.5139 -0.2395 -0.0704
 2817SOL    HW1 9892   6.617   2.888  10.317 -0.2967  0.5261  0.5854
 2817SOL    HW2 9893   6.525   2.935  10.428 -1.8980  3.1432 -1.7324
 2818SOL     OW 9894   6.442   1.785   5.523 -0.0628  0.9086  0.3109
 2818SOL    HW1 9895   6.410   1.830   5.601 -1.8647  2.1209 -1.0576
 2818SOL    HW2 9896   6.363   1.753   5.480  1.0386 -2.4498  0.4651
 2819SOL     OW 9897   7.001   1.599   1.043  0.3602  0.2165 -0.4486
 2819SOL    HW1 9898   6.918   1.570   1.082  0.2698  1.4701  0.3985
 2819SOL    HW2 9899   6.980   1.615   0.951 -0.4027  0.6634 -0.2132
 2820SOL     OW 9900   2.657   1.862   4.985  0.3070 -0.7350 -0.0589
 2820SOL    HW1 9901   2.699   1.795   4.932  0.3487 -0.7484 -0.0089
 2820SOL    HW2 9902   2.678   1.839   5.076 -2.3911 -2.5496  0.2285
 2821SOL     OW 9903   6.487   0.221   6.320  0.2458 -0.1257  0.2048
 2821SOL    HW1 9904   6.543   0.250   6.392  0.2692 -0.2523  0.2384
 2821SOL    HW2 9905   6.398   0.231   6.354  0.1188  2.3026 -0.6684
 2822SOL     OW 9906   5.251   4.915   2.442  0.4591  0.4709  0.2338
 2822SOL    HW1 9907   5.183   4.857   2.475 -1.5278  1.5881 -1.6015
 2822SOL    HW2 9908   5.204   4.989   2.404  2.5620  0.5797 -2.5812
 2823SOL     OW 9909   5.605   1.405  12.027 -0.4270  0.1506  0.4109
 2823SOL    HW1 9910   5.554   1.361  12.095 -1.0872 -0.0341 -0.1964
 2823SOL    HW2 9911   5.541   1.428  11.960  0.2633  0.0270 -0.3048
 2824SOL     OW 9912   4.711   1.302   5.746 -0.0417 -0.6294 -0.1392
 2824SOL    HW1 9913   4.755   1.220   5.724 -1.5776 -1.5864  0.1871
 2824SOL    HW2 9914   4.705   1.349   5.663 -0.5238 -1.5627 -0.6494
 2825SOL     OW 9915   6.568   0.526   9.070  0.2049 -0.4965  0.0471
 2825SOL    HW1 9916   6.578   0.497   8.980  0.3196  0.2020 -0.1673
 2825SOL    HW2 9917   6.500   0.469   9.106  0.0986 -0.7174 -0.4996
 2826SOL     OW 9918   7.717   3.999   3.480  0.2151 -0.3790  0.2945
 2826SOL    HW1 9919   7.737   4.002   3.386 -1.1065  1.0770  0.0253
 2826SOL    HW2 9920   7.763   4.074   3.517  0.8835 -1.0545  0.8764
 2827SOL     OW 9921   2.597   0.351   5.551 -0.3464 -0.1770 -0.1129
 2827SOL    HW1 9922   2.690   0.346   5.571 -0.0717  0.6250 -1.0738
 2827SOL    HW2 9923   2.554   0.355   5.637  0.6526  1.5300  0.3544
 2828SOL     OW 9924   4.170   7.503   5.795  0.1425  0.2617  0.0739
 2828SOL    HW1 9925   4.230   7.429   5.793 -0.1222 -0.0222  1.3781
 2828SOL    HW2 9926   4.217   7.573   5.749  0.6811 -0.5049 -0.5596
 2829SOL     OW 9927   7.705   2.633   1.333  0.1335  0.6063 -1.1317
 2829SOL    HW1 9928   7.652   2.576   1.278  0.9648 -1.7754  0.3684
 2829SOL    HW2 9929   7.793   2.594   1.330  0.9798  2.3634 -0.7386
 2830SOL     OW 9930   5.047   5.381  12.394  0.1069 -0.2594 -0.7899
 2830SOL    HW1 9931   4.959   5.345  12.401  0.5341 -1.2865 -0.3351
 2830SOL    HW2 9932   5.070   5.373  12.301  1.2461 -4.0000 -0.3842
 2831SOL     OW 9933   3.738   7.061   3.825 -0.7609 -0.2139  0.2154
 2831SOL    HW1 9934   3.764   7.024   3.910 -1.9678  0.5963  0.9616
 2831SOL    HW2 9935   3.755   6.990   3.762  0.5101 -0.6935  1.0549
 2832SOL     OW 9936   5.816   6.649   0.882 -0.3327  0.0360 -0.3812
 2832SOL    HW1 9937   5.800   6.743   0.883  0.0496  0.1425 -1.8606
 2832SOL    HW2 9938   5.911   6.641   0.871 -0.2296 -0.5426  0.7714
 2833SOL     OW 9939   7.271   3.044   4.809 -0.2382 -0.0668  0.3600
 2833SOL    HW1 9940   7.342   3.091   4.764  0.3087 -1.6877 -0.5773
 2833SOL    HW2 9941   7.291   3.053   4.902  2.0887 -1.6953  0.1031
 2834SOL     OW 9942   1.176   0.336   5.968  0.4943 -0.3451 -0.2856
 2834SOL    HW1 9943   1.081   0.331   5.963  0.5957 -1.6937 -1.5087
 2834SOL    HW2 9944   1.198   0.421   5.930 -0.2107  0.0495  0.1609
 2835SOL     OW 9945   3.738   0.802   9.435 -0.0900 -0.2879 -0.2290
 2835SOL    HW1 9946   3.689   0.852   9.369  1.2764  0.1348 -0.9577
 2835SOL    HW2 9947   3.723   0.850   9.517 -1.0036 -0.2482 -0.4124
 2836SOL     OW 9948   0.411   3.471   5.377  0.5847  0.5369  0.0788
 2836SOL    HW1 9949   0.400   3.492   5.285 -1.4932 -1.5381 -0.2422
 2836SOL    HW2 9950   0.478   3.532   5.408  0.9929  1.6083 -2.6537
 2837SOL     OW 9951   1.052   5.757   2.802 -0.2601 -0.4033 -0.5984
 2837SOL    HW1 9952   1.029   5.673   2.840 -0.5151  0.8774  2.3052
 2837SOL    HW2 9953   0.969   5.805   2.796 -0.0282 -0.0893 -1.6196
 2838SOL     OW 9954   0.655   0.210  11.546 -0.2430 -0.3596 -0.6455
 2838SOL    HW1 9955   0.581   0.225  11.605 -0.0610  0.2776 -0.5771
 2838SOL    HW2 9956   0.639   0.122  11.510 -1.3464  0.0068 -1.0862
 2839SOL     OW 9957   2.113   3.042   6.307 -0.1140 -0.6687 -0.8714
 2839SOL    HW1 9958   2.184   3.000   6.357  0.2950 -0.1133 -0.9743
 2839SOL    HW2 9959   2.042   2.978   6.309 -0.1453 -0.6135  0.5134
 2840SOL     OW 9960   4.414   7.490   3.033 -0.1984 -0.3237 -0.0872
 2840SOL    HW1 9961   4.487   7.431   3.016 -0.4304 -0.4306 -0.7463
 2840SOL    HW2 9962   4.416   7.504   3.127  1.9215  1.3162 -0.3221
 2841SOL     OW 9963   5.777   3.701  11.983 -0.2641 -0.1375  0.1962
 2841SOL    HW1 9964   5.801   3.634  12.048 -0.5355 -0.2226  0.2099
 2841SOL    HW2 9965   5.769   3.782  12.033  2.6487  0.4942 -0.1925
 2842SOL     OW 9966   1.586   0.099   0.448 -0.4945  0.1587 -0.1656
 2842SOL    HW1 9967   1.536   0.179   0.460  0.3193  0.7049 -0.3543
 2842SOL    HW2 9968   1.601   0.094   0.354  0.0897  0.1713 -0.0727
 2843SOL     OW 9969   0.180   4.795   2.864  0.1850 -0.4846 -0.5150
 2843SOL    HW1 9970   0.203   4.702   2.872  0.5431 -0.4909 -1.5383
 2843SOL    HW2 9971   0.086   4.794   2.844  0.0579 -0.5898  0.0460
 2844SOL     OW 9972   5.543   1.688   9.688  0.1095  0.2059 -0.3636
 2844SOL    HW1 9973   5.507   1.609   9.649  0.1632  0.2714 -0.5483
 2844SOL    HW2 9974   5.466   1.741   9.711  0.0635 -0.0822  0.1469
 2845SOL     OW 9975   0.336   3.196  11.866  0.3979  0.0590  0.6711
 2845SOL    HW1 9976   0.322   3.108  11.833  0.8442 -1.4097  3.9976
 2845SOL    HW2 9977   0.400   3.186  11.937  2.2959  3.4482 -0.3399
 2846SOL     OW 9978   6.018   0.463   7.487 -0.4779  0.0765  0.0404
 2846SOL    HW1 9979   5.981   0.442   7.573  0.2905 -0.1484  0.3229
 2846SOL    HW2 9980   5.981   0.397   7.428 -0.8092  0.0778  0.2448
 2847SOL     OW 9981   1.296   0.722   0.398 -0.1744 -0.4003  0.0820
 2847SOL    HW1 9982   1.353   0.770   0.459 -1.6286  1.0186  0.3907
 2847SOL    HW2 9983   1.255   0.790   0.345 -1.4597 -1.3835 -0.2403
 2848SOL     OW 9984   4.906   0.082   0.139  0.0571  0.6402 -0.2971
 2848SOL    HW1 9985   4.919   0.060   0.231 -2.7292 -1.4574 -0.2829
 2848SOL    HW2 9986   4.835   0.146   0.139  0.7648  1.4419 -0.9554
 2849SOL     OW 9987   0.556   5.254   4.377  0.1954 -0.0977 -0.2527
 2849SOL    HW1 9988   0.471   5.297   4.367 -0.0288 -0.3165  0.6659
 2849SOL    HW2 9989   0.576   5.261   4.470  1.5155  0.5702 -0.5491
 2850SOL     OW 9990   4.868   1.544  11.510 -0.3756 -0.3112  0.3005
 2850SOL    HW1 9991   4.911   1.627  11.489  1.6889 -0.8194  2.1022
 2850SOL    HW2 9992   4.922   1.478  11.465  0.4779 -0.9191  2.1155
 2851SOL     OW 9993   3.288   0.418   6.474  0.5254  0.7306 -0.3338
 2851SOL    HW1 9994   3.193   0.428   6.462  0.4056 -0.7821 -0.9580
 2851SOL    HW2 9995   3.314   0.495   6.524 -1.4518 -0.0376  2.1167
 2852SOL     OW 9996   2.202   6.470   8.227  0.5166  0.3054  0.3209
 2852SOL    HW1 9997   2.280   6.419   8.208  0.9858  0.4849  1.7071
 2852SOL    HW2 9998   2.229   6.561   8.215  0.6617  0.3914  1.2681
 2853SOL     OW 9999   3.433   2.239   6.769 -0.0261  0.5906 -0.0880
 2853SOL    HW110000   3.422   2.295   6.691  0.5758  0.2572 -0.4199
 2853SOL    HW210001   3.515   2.193   6.754 -0.8668 -0.9679 -0.1931
 2854SOL     OW10002   2.829   5.850   6.459  0.1558  0.4634  0.2237
 2854SOL    HW110003   2.915   5.887   6.482 -0.6828  1.9226  1.2012
 2854SOL    HW210004   2.818   5.871   6.367  0.4521  1.1389  0.3315
 2855SOL     OW10005   7.553   6.252   5.663 -0.2000 -0.1177  0.8617
 2855SOL    HW110006   7.637   6.242   5.708  0.3307 -1.1044 -0.2932
 2855SOL    HW210007   7.508   6.169   5.678  0.0261 -0.4988 -0.4633
 2856SOL     OW10008   7.367   1.322   5.114 -0.0317  0.2657 -0.1997
 2856SOL    HW110009   7.286   1.373   5.124 -1.6464 -2.3877  1.2514
 2856SOL    HW210010   7.400   1.347   5.027 -0.2604  4.2155  0.6573
 2857SOL     OW10011   6.894   7.810   5.145  0.2901  0.3157  0.1414
 2857SOL    HW110012   6.985   7.823   5.173  0.1304 -1.2521  1.5320
 2857SOL    HW210013   6.897   7.817   5.050  2.0841 -0.8703  0.0634
 2858SOL     OW10014   2.197   4.730  11.009 -0.5334 -0.0102 -0.1325
 2858SOL    HW110015   2.222   4.732  10.916 -0.4554  0.2678 -0.1042
 2858SOL    HW210016   2.170   4.819  11.029 -0.1546  0.0271  0.2197
 2859SOL     OW10017   2.543   6.281   7.422  0.0669 -0.2512 -0.3092
 2859SOL    HW110018   2.613   6.281   7.357 -0.6207  3.5366 -1.2919
 2859SOL    HW210019   2.584   6.314   7.502 -0.1527  0.1161 -0.3438
 2860SOL     OW10020   4.029   1.274   6.772  0.4528  0.3481  0.1110
 2860SOL    HW110021   4.110   1.245   6.815  0.3686  0.3984  0.3076
 2860SOL    HW210022   4.010   1.206   6.708 -0.9492 -1.2140  2.0809
 2861SOL     OW10023   3.985   2.554   0.145 -0.5866  0.2082  0.1219
 2861SOL    HW110024   4.041   2.496   0.197 -3.2415 -1.4898  1.3277
 2861SOL    HW210025   3.956   2.621   0.207 -2.4380 -0.8603  0.4890
 2862SOL     OW10026   5.394   2.587   9.064  0.2878 -0.3238  0.7774
 2862SOL    HW110027   5.343   2.552   8.991 -1.0206  0.6433  1.1730
 2862SOL    HW210028   5.418   2.510   9.116  1.0231 -0.9911 -0.5208
 2863SOL     OW10029   1.832   3.934  10.952 -0.9659 -0.5613 -0.1379
 2863SOL    HW110030   1.923   3.943  10.980 -0.4132 -1.8012 -1.4087
 2863SOL    HW210031   1.790   4.015  10.981  0.8287  0.5743 -0.5412
 2864SOL     OW10032   6.860   1.720  10.818  0.9171  0.2123  0.3047
 2864SOL    HW110033   6.882   1.792  10.758 -1.2365  0.6616 -0.0353
 2864SOL    HW210034   6.780   1.749  10.861  1.1127 -1.1488  1.6606
 2865SOL     OW10035   7.122   7.689   6.705 -0.4758 -0.5292 -0.3978
 2865SOL    HW110036   7.127   7.598   6.734 -1.7218 -0.5714 -0.2798
 2865SOL    HW210037   7.062   7.731   6.767  1.3500  0.7944  0.5715
 2866SOL     OW10038   2.061   3.926   0.966  0.1662  0.4246 -0.7967
 2866SOL    HW110039   1.973   3.931   1.004  1.0481  1.0480  1.3180
 2866SOL    HW210040   2.083   3.833   0.969 -1.0856 -0.0070 -3.0899
 2867SOL     OW10041   1.745   2.522   0.254  0.6751 -0.6125  0.6442
 2867SOL    HW110042   1.682   2.578   0.209 -1.1366 -1.7536  1.6137
 2867SOL    HW210043   1.829   2.540   0.212 -0.0647  1.8417  0.0973
 2868SOL     OW10044   5.464   2.407   2.739  0.1001 -0.7626 -0.3642
 2868SOL    HW110045   5.394   2.414   2.805  1.1995 -0.3622  0.7984
 2868SOL    HW210046   5.484   2.314   2.735 -0.4287 -0.8714 -0.6460
 2869SOL     OW10047   5.002   0.638   6.636 -0.3352 -0.6444 -0.3324
 2869SOL    HW110048   5.013   0.570   6.702  0.9825 -0.8082 -0.7051
 2869SOL    HW210049   5.073   0.700   6.653 -0.6559 -0.1127 -0.9036
 2870SOL     OW10050   0.014   7.552   6.080 -0.1399  0.6046  0.8828
 2870SOL    HW110051   0.023   7.458   6.097  0.1024  0.2673 -0.8809
 2870SOL    HW210052  -0.061   7.579   6.132  0.9271 -0.1243  2.9162
 2871SOL     OW10053   4.284   0.086   9.984  0.0882  0.3451  0.1082
 2871SOL    HW110054   4.309   0.105   9.893  0.1360 -0.0495  0.0361
 2871SOL    HW210055   4.279   0.172  10.026 -0.3860  0.5589 -0.3832
 2872SOL     OW10056   3.064   0.876   7.440 -0.5238  0.0425  0.1507
 2872SOL    HW110057   3.119   0.954   7.433  0.7775 -0.7848  0.7282
 2872SOL    HW210058   2.983   0.908   7.480 -0.3483  1.2289 -0.3911
 2873SOL     OW10059   0.938   2.655   0.597  0.7003  0.1496 -0.2295
 2873SOL    HW110060   0.857   2.611   0.572 -1.1720  2.9502  0.3921
 2873SOL    HW210061   0.939   2.650   0.693  0.9430  0.5884 -0.2057
 2874SOL     OW10062   6.984   4.689  12.294 -0.1958  0.3733  0.3306
 2874SOL    HW110063   7.053   4.755  12.284 -0.4121  0.4247 -0.9353
 2874SOL    HW210064   6.930   4.698  12.216  0.3860 -2.0012 -0.4279
 2875SOL     OW10065   5.891   3.423   9.298  0.3125  0.0046 -0.6483
 2875SOL    HW110066   5.858   3.334   9.310 -0.7139  0.3324 -0.9673
 2875SOL    HW210067   5.936   3.443   9.380  1.3247 -1.1162 -0.8999
 2876SOL     OW10068   2.922   4.477   8.543  0.0438  0.1006  0.0629
 2876SOL    HW110069   2.953   4.509   8.458  0.4403  0.8185  0.4697
 2876SOL    HW210070   2.950   4.544   8.605 -1.8388  0.5214  0.5318
 2877SOL     OW10071   4.780   3.903   3.040 -0.2471  0.4119 -0.3172
 2877SOL    HW110072   4.815   3.817   3.063  0.1600  0.5711 -0.3291
 2877SOL    HW210073   4.828   3.964   3.095  1.2202  0.8584 -2.0038
 2878SOL     OW10074   1.542   6.912   3.821 -0.3175 -0.7671  0.1248
 2878SOL    HW110075   1.550   7.001   3.788 -0.3966 -1.0051 -0.5621
 2878SOL    HW210076   1.559   6.857   3.745 -1.6971 -1.3234  0.1891
 2879SOL     OW10077   5.542   2.519   9.568  0.2205  0.1507  0.1140
 2879SOL    HW110078   5.457   2.528   9.526  0.2508 -0.5631 -0.1241
 2879SOL    HW210079   5.546   2.591   9.631  0.2031  1.3044 -1.1502
 2880SOL     OW10080   7.229   4.555   9.985  0.4602  0.1945  0.4359
 2880SOL    HW110081   7.162   4.487   9.977 -0.9039  1.4483  0.5632
 2880SOL    HW210082   7.305   4.510  10.022 -0.5272 -1.1662  0.9181
 2881SOL     OW10083   5.404   5.949   1.193 -0.6282  0.1648 -0.1000
 2881SOL    HW110084   5.424   5.970   1.284  2.4158 -2.2243 -0.0565
 2881SOL    HW210085   5.340   6.015   1.166  0.3407  2.5611  2.9438
 2882SOL     OW10086   3.331   7.288   9.023  0.3886 -0.4681 -0.0935
 2882SOL    HW110087   3.248   7.290   8.976 -0.0844  0.1266  0.7213
 2882SOL    HW210088   3.376   7.368   8.996  0.3405 -0.3883  0.0564
 2883SOL     OW10089   5.526   4.210   6.272  0.3422  0.5894 -0.2888
 2883SOL    HW110090   5.581   4.249   6.204  0.0447  0.9885 -0.3045
 2883SOL    HW210091   5.584   4.199   6.347  0.9125 -0.6992 -0.8859
 2884SOL     OW10092   4.694   5.202  10.618 -0.6461  0.6623  0.3178
 2884SOL    HW110093   4.601   5.192  10.598 -0.1744  0.0404 -1.7681
 2884SOL    HW210094   4.726   5.113  10.627 -0.2309  0.8744  1.0413
 2885SOL     OW10095   7.861   6.576   2.271  0.6296  0.6372 -0.3447
 2885SOL    HW110096   7.837   6.649   2.215  0.4949 -0.0392 -1.1909
 2885SOL    HW210097   7.785   6.561   2.326  0.2796  0.5113 -0.8557
 2886SOL     OW10098   3.807   7.411   4.531  1.0236  0.1829 -0.1984
 2886SOL    HW110099   3.784   7.319   4.517  0.1876  0.7781 -3.3574
 2886SOL    HW210100   3.733   7.460   4.496  2.4388  2.0881 -0.7113
 2887SOL     OW10101   6.550   1.831   9.351 -0.2328 -0.6936 -0.3632
 2887SOL    HW110102   6.585   1.780   9.424 -2.4336 -2.6307 -0.5554
 2887SOL    HW210103   6.464   1.793   9.333 -1.5097  2.3255 -1.3716
 2888SOL     OW10104   1.320   7.569   0.737  0.4770 -0.2413 -0.0691
 2888SOL    HW110105   1.378   7.589   0.663 -0.5504  2.6103 -0.2272
 2888SOL    HW210106   1.342   7.635   0.803 -1.6621  0.1084  0.3672
 2889SOL     OW10107   3.646   7.252   2.969 -0.4072  0.4144  0.6262
 2889SOL    HW110108   3.726   7.294   3.001  1.7286 -3.0192  0.2894
 2889SOL    HW210109   3.631   7.291   2.883  2.2738 -0.3205 -0.2773
 2890SOL     OW10110   7.556   0.409   7.655 -0.1221 -0.4859 -0.2558
 2890SOL    HW110111   7.638   0.420   7.703 -0.4218  0.1516  0.1287
 2890SOL    HW210112   7.527   0.320   7.676  0.2956 -0.5927 -0.1223
 2891SOL     OW10113   2.757   5.531   8.878 -0.3981 -0.0235  0.4159
 2891SOL    HW110114   2.765   5.615   8.834 -1.8542 -0.6145 -1.1146
 2891SOL    HW210115   2.679   5.491   8.839  0.8107 -2.5179  0.3139
 2892SOL     OW10116   0.629   2.369   9.877 -0.0695  0.0874 -0.3866
 2892SOL    HW110117   0.667   2.293   9.835 -1.0475 -0.8891  0.4355
 2892SOL    HW210118   0.702   2.431   9.885  1.4904 -1.8019  1.3866
 2893SOL     OW10119   1.091   6.049  10.048  0.1860  0.0894 -0.3104
 2893SOL    HW110120   0.998   6.066  10.030 -0.3072 -1.1170  0.9108
 2893SOL    HW210121   1.099   5.954  10.040  1.2396  0.1507 -0.0290
 2894SOL     OW10122   5.905   0.539  10.505 -0.1138 -0.2785  0.1302
 2894SOL    HW110123   5.815   0.530  10.473  0.0822 -0.0855 -0.5114
 2894SOL    HW210124   5.929   0.452  10.535 -0.7610 -0.1655  0.9841
 2895SOL     OW10125   2.256   6.922   7.725 -0.2677  0.0889  0.2077
 2895SOL    HW110126   2.318   6.967   7.782 -0.0990 -0.3838  0.4022
 2895SOL    HW210127   2.234   6.842   7.772  0.2904 -0.5714 -0.6344
 2896SOL     OW10128   7.633   2.552  11.265  0.4599 -0.8381  0.2342
 2896SOL    HW110129   7.583   2.513  11.337  0.1407  0.9775  1.0644
 2896SOL    HW210130   7.723   2.555  11.296  0.2055  0.6361  0.9325
 2897SOL     OW10131   3.101   2.443   0.123  0.3831 -0.5910  0.1147
 2897SOL    HW110132   3.015   2.484   0.110  0.9764  0.6276 -0.0956
 2897SOL    HW210133   3.094   2.359   0.078 -1.1270 -1.0987  1.2428
 2898SOL     OW10134   3.248   1.598   4.726  0.2492 -0.3288 -0.4150
 2898SOL    HW110135   3.291   1.563   4.648  0.0736 -1.2369 -0.1225
 2898SOL    HW210136   3.189   1.666   4.692  1.9193  0.9822 -0.8094
 2899SOL     OW10137   7.053   6.939   9.900  0.1204 -0.2087  0.1470
 2899SOL    HW110138   6.991   6.867   9.899  0.4240 -0.4689  0.1454
 2899SOL    HW210139   7.113   6.921   9.828  0.9194 -0.5884  0.9029
 2900SOL     OW10140   0.848   5.517   0.496 -0.4925  0.0550 -0.5090
 2900SOL    HW110141   0.926   5.462   0.485  0.5924  1.5443 -0.5915
 2900SOL    HW210142   0.876   5.586   0.557 -1.9590  0.2558 -0.0290
 2901SOL     OW10143   0.645   1.088   1.212  0.4303  0.2020 -0.1837
 2901SOL    HW110144   0.553   1.060   1.209 -0.0259  1.7117 -2.4365
 2901SOL    HW210145   0.670   1.098   1.120  2.3661  1.3950  0.4235
 2902SOL     OW10146   1.665   0.571   6.483 -0.5311  0.3654 -0.8717
 2902SOL    HW110147   1.639   0.493   6.533 -1.3240  2.0827  1.6371
 2902SOL    HW210148   1.621   0.562   6.399  1.3033 -2.9638 -1.6648
 2903SOL     OW10149   6.525   3.684   8.787 -0.4662  0.0781 -0.1092
 2903SOL    HW110150   6.438   3.690   8.749 -0.0115  2.0367 -0.9481
 2903SOL    HW210151   6.536   3.591   8.807 -2.1153 -0.4521 -1.4521
 2904SOL     OW10152   5.869   2.657   9.412 -0.4923  0.0990  0.4546
 2904SOL    HW110153   5.918   2.679   9.333 -0.5419  1.2394  0.7251
 2904SOL    HW210154   5.791   2.610   9.380 -0.1800 -0.0375 -0.1106
 2905SOL     OW10155   0.959   6.828   9.574 -0.0792  0.0556  0.8330
 2905SOL    HW110156   0.968   6.771   9.651  2.8887  1.3580  1.5712
 2905SOL    HW210157   0.891   6.890   9.599  0.6674  0.3158  2.3723
 2906SOL     OW10158   1.210   7.154   9.550 -0.3577  0.0520 -1.0426
 2906SOL    HW110159   1.264   7.228   9.522  1.4272  0.0614  1.9948
 2906SOL    HW210160   1.241   7.081   9.497  2.1967  0.2430  0.0384
 2907SOL     OW10161   0.974   3.750   9.297  0.1884 -0.4708  0.0487
 2907SOL    HW110162   0.971   3.843   9.318 -1.9758 -0.5351  0.1954
 2907SOL    HW210163   1.037   3.744   9.225 -1.1323  1.4198 -1.3553
 2908SOL     OW10164   7.061   6.268   1.433 -0.4406  0.9326  0.0844
 2908SOL    HW110165   7.119   6.339   1.462  0.4104  0.0309  0.6246
 2908SOL    HW210166   7.118   6.208   1.386 -0.5554 -0.8405  2.0855
 2909SOL     OW10167   7.748   0.404   7.269 -0.0250 -0.6453 -0.2817
 2909SOL    HW110168   7.735   0.388   7.176  0.5679 -0.3813 -0.4112
 2909SOL    HW210169   7.843   0.414   7.280 -0.1219 -0.2377  0.2752
 2910SOL     OW10170   2.359   0.487   3.009 -0.4906 -0.2334 -0.6112
 2910SOL    HW110171   2.272   0.504   2.972  0.0433  0.5107 -1.5679
 2910SOL    HW210172   2.419   0.502   2.936  0.6966  2.4272  0.7808
 2911SOL     OW10173   0.740   5.835   4.403 -0.2294 -0.6682  0.2228
 2911SOL    HW110174   0.795   5.913   4.399  1.2925 -1.6445  0.9460
 2911SOL    HW210175   0.696   5.841   4.488 -1.6875  0.3481 -0.5513
 2912SOL     OW10176   5.053   5.698   7.887 -0.1525  0.0607 -0.5802
 2912SOL    HW110177   5.013   5.784   7.874 -0.4811  0.0892  0.5285
 2912SOL    HW210178   5.099   5.706   7.970  0.1990 -0.7029 -0.6974
 2913SOL     OW10179   0.102   3.589  12.276 -1.2615 -0.1245 -0.2660
 2913SOL    HW110180   0.067   3.668  12.318  0.3950  1.3100 -1.4335
 2913SOL    HW210181   0.067   3.591  12.187 -1.3905 -0.8373 -0.2362
 2914SOL     OW10182   5.412   5.285  10.498 -0.2995 -1.0608 -0.1530
 2914SOL    HW110183   5.381   5.195  10.495  0.7671 -1.4202 -0.9363
 2914SOL    HW210184   5.495   5.281  10.546 -0.1495 -0.5361 -0.3555
 2915SOL     OW10185   5.592   5.457   9.302  0.0758  0.0909  0.2517
 2915SOL    HW110186   5.633   5.384   9.256 -0.2649 -0.3539  0.6348
 2915SOL    HW210187   5.656   5.483   9.368 -0.4341 -0.9464  1.1981
 2916SOL     OW10188   5.852   7.908   9.700 -0.1953  0.0649 -0.4671
 2916SOL    HW110189   5.939   7.879   9.730  0.1129  0.5548 -0.8809
 2916SOL    HW210190   5.866   7.998   9.670 -0.8058  0.0735 -0.7240
 2917SOL     OW10191   0.213   1.655   5.027 -0.1570 -0.4481 -0.0287
 2917SOL    HW110192   0.308   1.664   5.015 -0.0598 -1.8902 -0.5325
 2917SOL    HW210193   0.176   1.669   4.940 -0.3700 -0.3204  0.0820
 2918SOL     OW10194   2.651   6.455   4.479  0.5438  0.0740 -0.4236
 2918SOL    HW110195   2.640   6.462   4.574  0.8007 -0.7481 -0.3236
 2918SOL    HW210196   2.562   6.458   4.444  0.3852 -0.5257 -0.0808
 2919SOL     OW10197   7.315   5.406   5.079  0.0625  0.3221  0.4630
 2919SOL    HW110198   7.262   5.332   5.107  1.1177 -0.5411  0.2623
 2919SOL    HW210199   7.347   5.446   5.160  1.4750 -0.9536  0.5845
 2920SOL     OW10200   4.353   4.942   9.719 -0.2314  0.4334  0.1371
 2920SOL    HW110201   4.332   4.895   9.800  0.4379  0.3956  0.2955
 2920SOL    HW210202   4.358   4.874   9.652  1.0079  0.2339  0.4190
 2921SOL     OW10203   4.156   1.172   3.985 -0.4684  0.1940  0.1145
 2921SOL    HW110204   4.163   1.264   4.011 -0.4172 -0.1192  1.2864
 2921SOL    HW210205   4.230   1.130   4.028 -0.4870 -0.3994 -0.4273
 2922SOL     OW10206   0.178   4.719   4.275 -0.2821  0.1730  0.0430
 2922SOL    HW110207   0.099   4.676   4.241  0.5209 -0.7948 -0.6579
 2922SOL    HW210208   0.247   4.654   4.263  0.3901  0.4844  1.8805
 2923SOL     OW10209   6.003   7.918   3.645  0.1031 -0.4375  0.1414
 2923SOL    HW110210   6.073   7.920   3.580  1.4910  0.8605  1.5926
 2923SOL    HW210211   5.998   7.826   3.671  1.1197 -0.6010 -0.1686
 2924SOL     OW10212   5.856   7.750  10.495  0.0051 -0.6033  0.1126
 2924SOL    HW110213   5.892   7.675  10.541 -1.8887 -0.1937  2.4166
 2924SOL    HW210214   5.923   7.818  10.503  0.1669 -0.8938  1.3486
 2925SOL     OW10215   3.076   6.593   6.563 -0.1311  0.2860 -0.7945
 2925SOL    HW110216   3.010   6.662   6.577 -2.2861 -1.8703  0.4853
 2925SOL    HW210217   3.102   6.566   6.651  0.8295 -0.4074 -1.2688
 2926SOL     OW10218   6.520   3.506   2.352 -0.6047 -0.1399 -0.4746
 2926SOL    HW110219   6.478   3.590   2.369 -0.2101 -0.0678  0.1734
 2926SOL    HW210220   6.565   3.517   2.268 -0.4666  0.3363 -0.3388
 2927SOL     OW10221   4.773   5.863   5.635 -0.0563 -0.1638  0.0920
 2927SOL    HW110222   4.856   5.911   5.636  0.2164 -0.5670 -1.0006
 2927SOL    HW210223   4.708   5.928   5.609  0.0431 -0.0173  0.2081
 2928SOL     OW10224   3.741   5.395  11.647 -0.3338 -0.3419 -0.2964
 2928SOL    HW110225   3.765   5.470  11.702  0.3873 -0.8687  0.1282
 2928SOL    HW210226   3.663   5.424  11.599  1.3606  1.6450 -2.0808
 2929SOL     OW10227   1.298   0.201   6.202  0.2351  0.2722 -0.2620
 2929SOL    HW110228   1.281   0.109   6.180  0.4953  0.0760  0.3292
 2929SOL    HW210229   1.276   0.249   6.123  0.9019 -0.3844 -0.8626
 2930SOL     OW10230   4.777   5.986   1.854 -0.5439 -0.0704 -0.6281
 2930SOL    HW110231   4.747   5.923   1.919 -0.4042 -0.5404 -1.0181
 2930SOL    HW210232   4.756   5.947   1.769  1.2637 -0.4912 -0.9294
 2931SOL     OW10233   6.993   7.202  10.179  0.3345 -0.6436  0.1855
 2931SOL    HW110234   7.051   7.248  10.240 -0.5996  0.8056  0.0484
 2931SOL    HW210235   6.970   7.121  10.224 -1.4767  0.9996  2.5000
 2932SOL     OW10236   4.861   3.022   2.636  0.0330  0.0748 -0.3798
 2932SOL    HW110237   4.928   3.088   2.617  0.6023  0.1915  1.7381
 2932SOL    HW210238   4.782   3.055   2.593  0.9089  0.8026 -1.5058
 2933SOL     OW10239   1.393   5.293  12.212  0.1140  0.0663 -0.2411
 2933SOL    HW110240   1.464   5.334  12.262 -0.1603  0.1866  0.0586
 2933SOL    HW210241   1.362   5.222  12.268  0.1278 -0.1080 -0.4558
 2934SOL     OW10242   4.813   1.194   7.768  0.1296  0.7293  0.0029
 2934SOL    HW110243   4.874   1.134   7.810  1.3077  1.7135 -0.2411
 2934SOL    HW210244   4.726   1.166   7.798  0.6751 -0.7854  0.2448
 2935SOL     OW10245   6.326   0.137   8.453 -0.2135 -0.7609  0.7223
 2935SOL    HW110246   6.285   0.069   8.507 -0.7858 -0.9066  0.1150
 2935SOL    HW210247   6.274   0.215   8.470 -1.5724 -1.2296 -0.9870
 2936SOL     OW10248   0.751   5.019   8.690 -0.3785 -0.1460  0.0556
 2936SOL    HW110249   0.839   5.052   8.707 -0.0455 -0.8389 -0.2612
 2936SOL    HW210250   0.693   5.081   8.732  0.3221 -0.7347  1.9967
 2937SOL     OW10251   4.999   6.893  11.975  0.3018 -0.2118 -0.0883
 2937SOL    HW110252   4.919   6.841  11.964 -0.2726 -0.0760  2.7393
 2937SOL    HW210253   4.968   6.982  11.988  0.8009 -0.2399  1.5763
 2938SOL     OW10254   5.171   3.466   0.085  0.0984 -0.1759  0.8518
 2938SOL    HW110255   5.159   3.400   0.016 -1.2021  0.1182  0.7573
 2938SOL    HW210256   5.260   3.497   0.073  0.1148 -0.6027 -0.2952
 2939SOL     OW10257   2.323   0.222   3.852 -0.0982 -0.3007  0.4777
 2939SOL    HW110258   2.325   0.131   3.884  1.3648 -1.1765 -1.8220
 2939SOL    HW210259   2.416   0.243   3.837 -0.5265  1.0620 -0.3959
 2940SOL     OW10260   2.143   4.336   1.397  0.1727 -0.3964 -0.2604
 2940SOL    HW110261   2.156   4.360   1.489  0.7943  0.1211 -0.4744
 2940SOL    HW210262   2.208   4.387   1.350 -0.4948 -0.2591 -1.0528
 2941SOL     OW10263   4.432   1.972   3.172 -0.1168  0.4314 -0.1524
 2941SOL    HW110264   4.441   1.877   3.175  1.1086  0.5008 -0.8667
 2941SOL    HW210265   4.344   1.989   3.207  0.1681 -0.8533  1.3171
 2942SOL     OW10266   2.603   5.756   4.705  0.1774 -0.4447  0.6116
 2942SOL    HW110267   2.642   5.691   4.764 -0.8569 -1.2814  0.4158
 2942SOL    HW210268   2.520   5.779   4.746 -0.0225 -0.1694  0.0626
 2943SOL     OW10269   1.333   5.422   4.673  0.1747 -0.1210 -0.1087
 2943SOL    HW110270   1.283   5.493   4.633 -0.2115 -1.4895 -2.2106
 2943SOL    HW210271   1.268   5.372   4.723  0.2225  0.2634  0.3557
 2944SOL     OW10272   6.133   5.062   7.414  0.0782  0.2620  0.4967
 2944SOL    HW110273   6.163   4.977   7.446  1.9488  0.4758 -0.5355
 2944SOL    HW210274   6.138   5.055   7.318  2.2010  2.0903  0.3626
 2945SOL     OW10275   7.147   2.455   1.479 -0.2876 -0.0234 -0.2194
 2945SOL    HW110276   7.221   2.512   1.459 -0.4582  0.8730  1.5084
 2945SOL    HW210277   7.187   2.370   1.500 -0.0089 -0.5041 -2.4415
 2946SOL     OW10278   6.103   2.891   1.290  0.3014 -0.6600  0.4476
 2946SOL    HW110279   6.015   2.860   1.266 -0.3533  2.1054 -1.1849
 2946SOL    HW210280   6.155   2.882   1.210  0.5369  0.7615  0.4162
 2947SOL     OW10281   6.415   0.396   8.412  0.2825  0.7218  0.6881
 2947SOL    HW110282   6.393   0.452   8.337  0.8155  0.5359  0.3812
 2947SOL    HW210283   6.492   0.438   8.451 -1.1765  1.9780  2.4056
 2948SOL     OW10284   6.740   4.490   6.996  0.4016 -0.5101  0.1797
 2948SOL    HW110285   6.715   4.579   7.022  1.5883 -0.4280  1.1128
 2948SOL    HW210286   6.707   4.481   6.907 -1.3972  0.1776  0.7204
 2949SOL     OW10287   0.384   3.971   7.247 -0.6731  0.0943  0.0717
 2949SOL    HW110288   0.314   3.961   7.183 -0.8006  1.3174  0.0128
 2949SOL    HW210289   0.369   3.900   7.310  0.5815 -2.4025 -2.2175
 2950SOL     OW10290   1.887   0.227   1.075 -0.3525 -0.4834  0.3783
 2950SOL    HW110291   1.907   0.134   1.066 -0.3422 -0.5532  1.0573
 2950SOL    HW210292   1.879   0.259   0.985 -0.2658 -1.1190  0.1402
 2951SOL     OW10293   7.745   5.060   3.710 -0.6039 -0.4151 -0.2275
 2951SOL    HW110294   7.763   4.987   3.770  2.0512 -0.4653 -0.9900
 2951SOL    HW210295   7.790   5.135   3.750 -1.4654  0.3000 -0.5756
 2952SOL     OW10296   6.873   3.854   5.288 -0.0776  0.2054 -0.1546
 2952SOL    HW110297   6.834   3.922   5.342 -3.0921 -0.3645 -1.4254
 2952SOL    HW210298   6.802   3.793   5.269  1.8711 -1.9205 -1.2416
 2953SOL     OW10299   2.442   1.514   4.606  0.3075 -0.2150 -0.0924
 2953SOL    HW110300   2.427   1.423   4.580  1.3329 -0.0405 -1.4133
 2953SOL    HW210301   2.456   1.560   4.523  0.3757  1.0362  0.5935
 2954SOL     OW10302   6.355   5.380   2.167  0.3381 -0.4757  0.1676
 2954SOL    HW110303   6.370   5.383   2.261  0.7897 -1.4515  0.1387
 2954SOL    HW210304   6.442   5.395   2.129  0.2680 -0.6922 -0.0803
 2955SOL     OW10305   6.691   1.710   9.552 -0.7146  0.2027  0.2029
 2955SOL    HW110306   6.649   1.640   9.602  0.0381  0.8054  1.7709
 2955SOL    HW210307   6.773   1.672   9.521 -0.6854  0.1417  0.3543
 2956SOL     OW10308   3.070   0.962   1.136  0.6592  0.4606 -0.5795
 2956SOL    HW110309   3.017   1.040   1.152 -1.2299 -0.8767  0.1210
 2956SOL    HW210310   3.066   0.948   1.042  2.6801  2.2572 -0.9999
 2957SOL     OW10311   7.751   3.093   7.840  0.4893 -0.6056 -0.4599
 2957SOL    HW110312   7.753   3.159   7.770 -0.9124 -2.6986 -2.6306
 2957SOL    HW210313   7.828   3.039   7.824  0.6249 -0.5932  0.1419
 2958SOL     OW10314   7.406   1.234   0.146  0.1190  0.3809  0.0212
 2958SOL    HW110315   7.319   1.229   0.185  0.3172 -0.7624  0.3681
 2958SOL    HW210316   7.448   1.152   0.172 -0.0232 -0.9164 -3.3455
 2959SOL     OW10317   3.849   1.186   9.242 -0.1244  0.6226  0.5911
 2959SOL    HW110318   3.929   1.214   9.286 -0.2210  1.1616  0.4320
 2959SOL    HW210319   3.877   1.168   9.152 -0.4107  2.0825  0.1816
 2960SOL     OW10320   1.047   0.598   2.569 -0.2408  0.3382  0.2025
 2960SOL    HW110321   0.971   0.635   2.615 -0.2570 -1.5147  1.8220
 2960SOL    HW210322   1.024   0.506   2.556  1.1149  0.1079 -0.6880
 2961SOL     OW10323   2.859   0.891   5.110 -0.7563 -0.1127  0.1045
 2961SOL    HW110324   2.868   0.938   5.192 -1.4801 -0.0617  0.1634
 2961SOL    HW210325   2.840   0.800   5.135 -0.1681 -0.2764 -0.0114
 2962SOL     OW10326   5.255   7.679  10.459  0.5223  0.1675 -0.4004
 2962SOL    HW110327   5.326   7.704  10.400 -0.6315  1.9375 -1.1514
 2962SOL    HW210328   5.216   7.763  10.485  0.1572 -0.6517  1.8356
 2963SOL     OW10329   4.896   7.100   8.520 -0.0364 -0.0783  0.4067
 2963SOL    HW110330   4.814   7.124   8.564 -0.4604 -1.7102  0.5954
 2963SOL    HW210331   4.918   7.176   8.467 -1.3241  0.6480  0.8628
 2964SOL     OW10332   5.870   0.483   2.646  0.2406 -0.2805 -0.3704
 2964SOL    HW110333   5.791   0.537   2.652  0.3692 -0.1120 -0.1688
 2964SOL    HW210334   5.870   0.452   2.555 -0.6903 -1.2592 -0.0593
 2965SOL     OW10335   2.364   0.835   2.493 -0.4620  0.3209 -0.1879
 2965SOL    HW110336   2.362   0.810   2.586 -0.6272  1.8177  0.2316
 2965SOL    HW210337   2.273   0.860   2.474 -0.7928 -1.4861 -1.2145
 2966SOL     OW10338   3.256   6.551   1.253  0.3141  0.0031  0.1846
 2966SOL    HW110339   3.204   6.627   1.280  0.2349  0.1897 -0.4764
 2966SOL    HW210340   3.307   6.582   1.178  0.7749 -0.4099  0.3195
 2967SOL     OW10341   5.620   2.535   4.799 -0.1056 -0.7189  0.2859
 2967SOL    HW110342   5.530   2.523   4.830  0.0676 -1.1736  0.6264
 2967SOL    HW210343   5.668   2.462   4.836  0.1279 -1.2620 -1.0350
 2968SOL     OW10344   2.625   4.859  11.151  0.0100  0.4133 -0.2791
 2968SOL    HW110345   2.624   4.955  11.145 -0.4872  0.6118  1.9196
 2968SOL    HW210346   2.561   4.840  11.219  1.5057 -1.3510  0.7082
 2969SOL     OW10347   2.539   5.689   9.821  0.2795 -0.2287 -0.3115
 2969SOL    HW110348   2.494   5.724   9.899  0.1393  0.3295 -0.6408
 2969SOL    HW210349   2.601   5.757   9.796 -0.5749  0.1642 -1.4475
 2970SOL     OW10350   4.622   6.778   3.646 -0.3086 -0.1112 -0.2373
 2970SOL    HW110351   4.712   6.806   3.634 -0.9084  1.7865 -0.7040
 2970SOL    HW210352   4.602   6.798   3.737 -0.5697  0.4785 -0.4202
 2971SOL     OW10353   3.744   3.746   5.029  0.6729  0.1374 -0.2318
 2971SOL    HW110354   3.723   3.714   5.117 -0.7146 -0.0099 -0.5920
 2971SOL    HW210355   3.712   3.836   5.028 -0.8890 -0.3913 -1.0940
 2972SOL     OW10356   5.918   7.534   5.787  0.4131 -0.0137  0.5540
 2972SOL    HW110357   5.869   7.545   5.706  0.9714  1.8858  0.4248
 2972SOL    HW210358   5.913   7.440   5.806  0.0685 -0.4503 -1.5232
 2973SOL     OW10359   5.915   1.597   6.292 -0.1786  0.1926  0.0973
 2973SOL    HW110360   5.885   1.687   6.277 -0.3308  0.0906 -0.2311
 2973SOL    HW210361   6.010   1.603   6.292 -0.1814  0.2746 -0.4427
 2974SOL     OW10362   1.907   4.204  12.262  0.2316  0.0599  0.5873
 2974SOL    HW110363   1.891   4.174  12.351  1.3317  0.6472  1.0015
 2974SOL    HW210364   1.970   4.275  12.272 -0.5287  0.9238 -0.5599
 2975SOL     OW10365   7.454   7.748   8.042 -0.0161 -0.4253  0.1489
 2975SOL    HW110366   7.512   7.777   7.971  1.5598  0.0285  1.5432
 2975SOL    HW210367   7.491   7.665   8.071 -1.1281 -1.0139 -0.0671
 2976SOL     OW10368   6.273   6.797   7.069  0.1540  0.0060 -0.4112
 2976SOL    HW110369   6.199   6.749   7.107  1.7118 -2.6373 -0.5011
 2976SOL    HW210370   6.252   6.802   6.976 -0.2975  0.0213 -0.3144
 2977SOL     OW10371   0.608   1.356   4.739  0.8011 -0.4328 -0.5281
 2977SOL    HW110372   0.564   1.359   4.653  1.5228  0.9098 -0.8820
 2977SOL    HW210373   0.628   1.264   4.752  0.7093 -0.6655 -1.8352
 2978SOL     OW10374   7.714   7.752  10.773  0.1937  0.3579  0.4912
 2978SOL    HW110375   7.752   7.665  10.786  0.3090  0.1385 -1.0238
 2978SOL    HW210376   7.732   7.771  10.681  1.6619  2.7241  1.2020
 2979SOL     OW10377   6.352   6.612   5.967  0.1207  0.6973 -0.0250
 2979SOL    HW110378   6.272   6.596   5.918  1.1851  0.6195 -1.8360
 2979SOL    HW210379   6.375   6.528   6.005 -0.7497  0.7709  0.6783
 2980SOL     OW10380   6.311   1.865   2.981 -0.1286  0.4732  0.1316
 2980SOL    HW110381   6.297   1.957   3.001 -0.4392  0.5168 -0.2681
 2980SOL    HW210382   6.263   1.851   2.899 -0.8115 -0.2501  0.6418
 2981SOL     OW10383   6.290   2.999   6.325  0.4502 -0.0063 -0.2717
 2981SOL    HW110384   6.244   3.082   6.319  0.0023 -0.2026  0.3197
 2981SOL    HW210385   6.349   3.010   6.400  0.8642 -0.0006 -0.5921
 2982SOL     OW10386   7.780   0.131   8.857 -0.2936 -0.1866  0.0786
 2982SOL    HW110387   7.826   0.079   8.792  2.3835  2.3035 -0.2682
 2982SOL    HW210388   7.763   0.070   8.929  4.1432 -1.3949  0.4492
 2983SOL     OW10389   2.576   7.624   3.228 -0.4752 -0.5563 -0.3071
 2983SOL    HW110390   2.581   7.588   3.139  0.2597 -0.4326 -0.3184
 2983SOL    HW210391   2.582   7.719   3.215 -0.6770 -0.5215 -0.1471
 2984SOL     OW10392   1.555   7.631   4.861  0.3531 -0.4110  0.0796
 2984SOL    HW110393   1.590   7.561   4.916 -2.3602 -3.0625 -1.2688
 2984SOL    HW210394   1.578   7.712   4.907  1.1091 -2.2891  3.2882
 2985SOL     OW10395   6.969   4.911   5.813  0.1885 -0.0229  0.0078
 2985SOL    HW110396   6.932   4.917   5.725 -2.2774  1.6122  1.0385
 2985SOL    HW210397   7.047   4.967   5.810 -1.1645  1.9265 -0.5961
 2986SOL     OW10398   7.691   7.033   6.081  0.2264 -0.2472 -0.1303
 2986SOL    HW110399   7.628   7.070   6.143  0.1682 -1.1386  0.3589
 2986SOL    HW210400   7.727   6.957   6.127 -0.4220 -1.4153 -1.4893
 2987SOL     OW10401   5.943   0.714  11.073  0.4425  0.0199  0.2115
 2987SOL    HW110402   5.949   0.795  11.023  2.1927  0.3261  0.8706
 2987SOL    HW210403   6.009   0.656  11.034  1.7136  0.2002  2.0091
 2988SOL     OW10404   1.014   2.410   5.676  0.1635  0.1342  0.1114
 2988SOL    HW110405   1.072   2.477   5.711  1.2068  0.1432 -1.5255
 2988SOL    HW210406   1.073   2.341   5.645 -0.8899 -1.9672  2.4331
 2989SOL     OW10407   3.600   5.092   8.129  0.0272 -0.0505  0.3043
 2989SOL    HW110408   3.538   5.163   8.145 -0.2195 -0.3902  0.8869
 2989SOL    HW210409   3.651   5.086   8.210  1.2139  0.6048 -0.3723
 2990SOL     OW10410   7.482   7.942   2.286 -0.1083 -0.2289 -0.1274
 2990SOL    HW110411   7.471   7.958   2.380  0.0908  1.6122 -0.3859
 2990SOL    HW210412   7.548   8.006   2.259 -0.9224 -0.0383 -1.7345
 2991SOL     OW10413   6.832   1.450   2.369  0.0000 -0.0358 -0.6453
 2991SOL    HW110414   6.771   1.392   2.323 -0.3771  1.3211 -1.9148
 2991SOL    HW210415   6.899   1.471   2.305 -0.4301  1.7432 -0.5739
 2992SOL     OW10416   0.180   2.089  11.184  0.4333  0.0181  0.2258
 2992SOL    HW110417   0.208   1.999  11.170 -0.2273  0.1476 -2.4832
 2992SOL    HW210418   0.255   2.143  11.158  1.5957  0.3720  3.7544
 2993SOL     OW10419   4.700   6.728   0.548  0.0463 -0.0048  0.0142
 2993SOL    HW110420   4.760   6.658   0.521  1.7540  2.2181 -2.5905
 2993SOL    HW210421   4.747   6.775   0.616 -1.3284 -1.5615  2.1584
 2994SOL     OW10422   3.463   6.034  10.787  0.1796  0.1461 -0.3451
 2994SOL    HW110423   3.466   5.996  10.875  1.4454 -0.4505 -0.6208
 2994SOL    HW210424   3.370   6.032  10.763 -0.2961  1.0875  1.2826
 2995SOL     OW10425   5.995   3.193   5.258 -0.1001 -0.4513 -0.3289
 2995SOL    HW110426   5.985   3.118   5.318  0.3020 -0.5343 -0.3616
 2995SOL    HW210427   6.075   3.236   5.287  1.3165 -1.7078 -2.0839
 2996SOL     OW10428   7.676   7.113   1.731  0.2077  0.5468 -0.0230
 2996SOL    HW110429   7.701   7.203   1.708  1.1139  0.5681  0.9183
 2996SOL    HW210430   7.755   7.077   1.772 -0.3182 -0.5032  0.0944
 2997SOL     OW10431   2.941   6.748   5.687 -0.1107 -0.1319  0.2703
 2997SOL    HW110432   2.986   6.670   5.654  0.5480  1.0333 -1.8328
 2997SOL    HW210433   2.854   6.742   5.648 -0.3058 -0.1855  0.7174
 2998SOL     OW10434   5.919   7.434   9.128 -0.4293  0.0148  0.0339
 2998SOL    HW110435   5.967   7.389   9.198  0.2767 -0.8899 -0.9887
 2998SOL    HW210436   5.987   7.479   9.078 -0.5625 -1.3557 -1.4844
 2999SOL     OW10437   3.337   4.356   4.997 -0.5289  0.4634 -0.1840
 2999SOL    HW110438   3.277   4.426   4.971  1.9236  3.0757  0.6894
 2999SOL    HW210439   3.415   4.370   4.943  0.2204 -1.3039  0.3835
 3000SOL     OW10440   6.597   3.603   2.795 -0.0808 -0.3925  0.2766
 3000SOL    HW110441   6.556   3.689   2.805 -0.1736 -0.5542  1.4375
 3000SOL    HW210442   6.690   3.619   2.813  0.6742  0.1797 -3.3772
 3001SOL     OW10443   0.398   0.525   8.835  0.5199 -0.3736 -0.0819
 3001SOL    HW110444   0.450   0.444   8.837  0.7623 -0.2201 -0.0610
 3001SOL    HW210445   0.400   0.552   8.743 -0.1647 -0.7736 -0.2199
 3002SOL     OW10446   5.845   7.456   8.865 -0.7073  0.7186  0.3492
 3002SOL    HW110447   5.868   7.453   8.958  0.2286  3.1600  0.2562
 3002SOL    HW210448   5.906   7.394   8.825 -0.3072  0.5217  1.2218
 3003SOL     OW10449   5.775   6.419   4.311 -0.3152 -0.1884 -0.2853
 3003SOL    HW110450   5.748   6.511   4.313  0.6222  0.0959 -0.4838
 3003SOL    HW210451   5.801   6.400   4.401  0.9231  0.1861 -0.5486
 3004SOL     OW10452   5.726   6.826   1.506 -0.4887 -0.3360 -0.4570
 3004SOL    HW110453   5.763   6.766   1.571 -0.7848  0.8309  0.8287
 3004SOL    HW210454   5.633   6.805   1.506 -0.3576 -0.9463 -1.1827
 3005SOL     OW10455   4.433   0.881   4.849 -0.4988  0.1570  0.1839
 3005SOL    HW110456   4.402   0.792   4.834  2.1423 -1.0970  1.4939
 3005SOL    HW210457   4.354   0.934   4.854 -2.1161 -1.8784 -1.8111
 3006SOL     OW10458   6.410   2.757  12.324 -0.7744  0.1147 -0.4483
 3006SOL    HW110459   6.461   2.748  12.405  3.2491  0.7771 -2.6790
 3006SOL    HW210460   6.420   2.849  12.300 -1.3173 -0.2082 -2.0324
 3007SOL     OW10461   6.522   1.572   5.104  0.6058 -0.0331  0.0972
 3007SOL    HW110462   6.509   1.589   5.198 -1.0671  0.9288 -0.2760
 3007SOL    HW210463   6.617   1.559   5.095  0.7062 -1.1154  2.0602
 3008SOL     OW10464   6.692   4.058   1.239 -0.3008  0.0643  0.2139
 3008SOL    HW110465   6.759   4.011   1.288 -0.0024  1.3959  1.1274
 3008SOL    HW210466   6.736   4.089   1.161  0.1988  0.9858  0.8391
 3009SOL     OW10467   3.964   0.976   6.937  0.4768  0.2711 -0.0390
 3009SOL    HW110468   4.045   0.936   6.969 -0.2589 -0.3627  1.1160
 3009SOL    HW210469   3.963   0.956   6.844  1.7972  0.5732 -0.1491
 3010SOL     OW10470   6.534   3.618   9.830 -0.2146  0.0838  1.1739
 3010SOL    HW110471   6.542   3.701   9.877  1.0795  0.7359 -0.0938
 3010SOL    HW210472   6.473   3.637   9.758  0.5782  0.1372  0.5043
 3011SOL     OW10473   5.857   6.128   0.755  0.0363  0.3519  0.2725
 3011SOL    HW110474   5.787   6.163   0.810 -0.0609 -1.6691  1.5293
 3011SOL    HW210475   5.928   6.108   0.816  0.6531 -0.1822 -0.5943
 3012SOL     OW10476   2.236   5.257   8.832  0.5493 -0.5546 -0.0154
 3012SOL    HW110477   2.176   5.256   8.757 -0.6323  0.7918  0.8617
 3012SOL    HW210478   2.264   5.166   8.841  0.2456 -0.8518 -1.7151
 3013SOL     OW10479   1.445   0.873   6.262 -0.1305 -0.3722 -0.4770
 3013SOL    HW110480   1.464   0.783   6.290  1.6621  0.1342  0.1078
 3013SOL    HW210481   1.387   0.907   6.330  0.5255 -0.5833  0.2013
 3014SOL     OW10482   2.648   1.434   1.962  0.2328 -0.1026  0.7004
 3014SOL    HW110483   2.595   1.499   2.008  0.4292  0.1751  0.5477
 3014SOL    HW210484   2.732   1.479   1.948 -0.0343  0.0576 -0.4814
 3015SOL     OW10485   2.601   0.460   7.520 -0.2986  0.4854 -0.3640
 3015SOL    HW110486   2.690   0.445   7.489  0.0245 -0.5784  0.9861
 3015SOL    HW210487   2.546   0.410   7.459  0.1314  0.2177 -0.5403
 3016SOL     OW10488   3.596   0.398  11.173 -0.0391 -0.0084  0.5552
 3016SOL    HW110489   3.587   0.402  11.078  0.6780  2.0602  0.5275
 3016SOL    HW210490   3.511   0.368  11.204 -1.3164  2.2042 -0.5954
 3017SOL     OW10491   4.384   1.970  10.846 -0.2307  0.8420 -0.5478
 3017SOL    HW110492   4.357   1.888  10.888  0.3936  0.6920 -0.4258
 3017SOL    HW210493   4.314   2.032  10.868 -0.3250  0.5446  0.0172
 3018SOL     OW10494   3.392   7.019   9.583 -0.0322  0.1629 -0.3950
 3018SOL    HW110495   3.465   6.957   9.574 -0.6611 -0.5181 -1.0552
 3018SOL    HW210496   3.430   7.097   9.622  1.1808  0.0534 -1.3082
 3019SOL     OW10497   1.542   5.520   6.390 -0.8419 -0.1723  0.2826
 3019SOL    HW110498   1.543   5.616   6.386 -1.3749 -0.1465  0.6833
 3019SOL    HW210499   1.623   5.497   6.436  0.7853 -0.0676 -2.3011
 3020SOL     OW10500   5.218   0.077   5.432  0.4424  1.3944  0.1042
 3020SOL    HW110501   5.249   0.009   5.491  1.4374  2.0443  0.3431
 3020SOL    HW210502   5.134   0.105   5.470 -1.1023 -1.1310 -1.1544
 3021SOL     OW10503   6.924   7.956  11.039  0.0122  0.0579  0.2780
 3021SOL    HW110504   6.957   7.870  11.066 -1.6084 -0.8007 -0.3508
 3021SOL    HW210505   6.923   8.008  11.119 -0.7402 -1.1091  1.0562
 3022SOL     OW10506   4.439   2.515   5.816  0.0327  0.1892 -0.9037
 3022SOL    HW110507   4.505   2.446   5.810  1.2036  1.3252 -1.6875
 3022SOL    HW210508   4.389   2.508   5.735 -2.9640 -2.6363  0.9444
 3023SOL     OW10509   3.211   1.294   3.420 -0.0149  0.5070 -0.1834
 3023SOL    HW110510   3.189   1.372   3.470  1.5593 -0.9588  3.1164
 3023SOL    HW210511   3.303   1.304   3.397 -0.2110  0.2896 -1.0981
 3024SOL     OW10512   2.075   0.615   8.622  0.0930  0.7373 -0.3580
 3024SOL    HW110513   2.014   0.542   8.615  1.7727 -0.5625 -2.9714
 3024SOL    HW210514   2.064   0.647   8.712 -1.9297 -1.5702  0.3246
 3025SOL     OW10515   1.589   7.832  10.348  0.2322 -0.9206  0.1314
 3025SOL    HW110516   1.604   7.871  10.434 -1.8414  1.2032 -0.3690
 3025SOL    HW210517   1.495   7.819  10.343  0.5096 -2.9757 -1.0799
 3026SOL     OW10518   2.022   1.289  11.207 -0.3420  0.0472  0.3770
 3026SOL    HW110519   2.006   1.195  11.203  0.3349 -0.1582  1.9470
 3026SOL    HW210520   1.943   1.328  11.171 -0.4718 -1.1139 -0.6740
 3027SOL     OW10521   2.336   5.214   6.095 -0.9671 -0.2220  0.2390
 3027SOL    HW110522   2.351   5.279   6.027 -0.1290  0.2082  0.8103
 3027SOL    HW210523   2.389   5.138   6.069 -0.9474 -0.1995  0.2144
 3028SOL     OW10524   5.426   5.649   1.396 -0.7516 -0.5252 -0.1437
 3028SOL    HW110525   5.459   5.560   1.406 -2.4430 -1.1026  0.7912
 3028SOL    HW210526   5.485   5.703   1.448 -1.8210 -1.6637  2.3977
 3029SOL     OW10527   6.886   4.995   2.919  0.4392 -0.4822 -0.4206
 3029SOL    HW110528   6.838   5.019   2.840  0.8625 -2.5254 -1.3730
 3029SOL    HW210529   6.818   4.980   2.985  0.1097  1.7580 -0.1900
 3030SOL     OW10530   6.219   1.100  10.209  0.5670 -0.0807 -0.3845
 3030SOL    HW110531   6.216   1.020  10.263 -1.5515  0.6266  0.6745
 3030SOL    HW210532   6.162   1.080  10.135 -0.0936  0.4749 -0.0378
 3031SOL     OW10533   4.862   4.570   9.733 -0.5812  0.2035 -0.6506
 3031SOL    HW110534   4.947   4.608   9.756 -1.3439  0.7922  1.4490
 3031SOL    HW210535   4.873   4.476   9.749  0.0171  0.1039 -1.5866
 3032SOL     OW10536   2.897   5.317   3.157  0.0614  0.1268  0.2887
 3032SOL    HW110537   2.946   5.305   3.239 -0.5023 -1.8243  0.3949
 3032SOL    HW210538   2.964   5.341   3.093  1.2428 -2.3940  0.4508
 3033SOL     OW10539   0.708   6.193   0.712  0.1740  0.4846 -0.4044
 3033SOL    HW110540   0.669   6.277   0.687 -1.7060 -0.7464 -1.9468
 3033SOL    HW210541   0.660   6.129   0.659  2.4626 -1.4414 -0.2620
 3034SOL     OW10542   7.391   1.869   9.360  0.2251 -0.3215  0.3122
 3034SOL    HW110543   7.328   1.851   9.291 -0.9179 -3.4327  1.9831
 3034SOL    HW210544   7.381   1.962   9.378 -1.2164  0.0371 -1.9726
 3035SOL     OW10545   7.396   0.566   9.985 -0.0834 -0.0499  0.0182
 3035SOL    HW110546   7.452   0.507   9.935 -0.2572 -1.1592  1.0835
 3035SOL    HW210547   7.365   0.513  10.059 -2.8473  0.3738 -0.7127
 3036SOL     OW10548   5.603   3.152   4.961  0.5083 -0.0450  0.5485
 3036SOL    HW110549   5.696   3.129   4.965  1.0114  1.8917  1.2575
 3036SOL    HW210550   5.588   3.204   5.040 -0.5034  1.8972 -0.8214
 3037SOL     OW10551   4.477   4.111   3.460 -0.1859 -0.5145  0.3513
 3037SOL    HW110552   4.485   4.024   3.420  0.8075 -0.4063  0.2823
 3037SOL    HW210553   4.564   4.128   3.497 -0.8335 -0.2501  1.8216
 3038SOL     OW10554   1.841   2.300  10.735 -0.4394  0.3575 -0.2935
 3038SOL    HW110555   1.919   2.293  10.791 -0.2380  0.3205 -0.5732
 3038SOL    HW210556   1.805   2.386  10.755  0.3989  0.9045 -1.0800
 3039SOL     OW10557   1.889   5.999   7.147  0.7996 -1.2312 -0.6736
 3039SOL    HW110558   1.945   6.055   7.201 -0.0314 -0.7402 -0.2986
 3039SOL    HW210559   1.911   6.025   7.057  0.9824 -0.8514 -0.5254
 3040SOL     OW10560   7.336   5.768   3.028 -0.5618 -0.1659 -0.6774
 3040SOL    HW110561   7.368   5.857   3.016  2.9145 -1.1857 -0.0749
 3040SOL    HW210562   7.379   5.717   2.958  0.4023 -1.9140  1.0855
 3041SOL     OW10563   7.532   3.756   9.564 -0.0607 -0.3753  0.1603
 3041SOL    HW110564   7.474   3.715   9.500 -0.5482 -1.4559  1.2665
 3041SOL    HW210565   7.484   3.750   9.647  0.5675  0.9763  0.6540
 3042SOL     OW10566   3.477   7.479   7.295 -0.1443  0.4214 -0.2098
 3042SOL    HW110567   3.499   7.565   7.331  0.3937  0.1450  0.1254
 3042SOL    HW210568   3.519   7.478   7.209  1.3147 -0.1494  0.4727
 3043SOL     OW10569   4.706   4.293   8.899 -0.2776  0.0535  0.5123
 3043SOL    HW110570   4.774   4.348   8.860 -0.0535  0.1377  1.0155
 3043SOL    HW210571   4.627   4.314   8.849  0.1508 -0.3629 -0.3587
 3044SOL     OW10572   0.398   0.988  10.128  0.1516  0.6026  0.1557
 3044SOL    HW110573   0.409   1.029  10.214  0.0229 -1.4205  1.1852
 3044SOL    HW210574   0.308   1.009  10.103  0.3177  1.5426  0.2991
 3045SOL     OW10575   3.937   7.621  10.442 -0.1005 -0.2348  0.3333
 3045SOL    HW110576   4.032   7.615  10.435  0.1932  0.2134  2.7674
 3045SOL    HW210577   3.905   7.538  10.408  0.9069  0.6252 -3.0337
 3046SOL     OW10578   5.025   5.438   4.294 -0.1604 -0.6846 -0.4095
 3046SOL    HW110579   4.970   5.392   4.231 -2.1017  2.1488 -0.9427
 3046SOL    HW210580   5.058   5.514   4.246  1.6277 -0.5600  0.8888
 3047SOL     OW10581   6.118   0.847   0.099  0.4712  0.0485 -0.4789
 3047SOL    HW110582   6.179   0.783   0.136 -1.7892 -1.5317  0.8329
 3047SOL    HW210583   6.130   0.926   0.152  0.8942 -0.4850  0.2374
 3048SOL     OW10584   7.384   6.898   6.107 -0.2213  0.4961  0.0351
 3048SOL    HW110585   7.352   6.833   6.170 -1.1523  1.2344  0.3523
 3048SOL    HW210586   7.474   6.871   6.089  0.7017  1.1875  3.0027
 3049SOL     OW10587   5.321   2.336  10.951 -0.2273 -0.7773  0.0721
 3049SOL    HW110588   5.392   2.274  10.971 -0.9524 -1.7817 -0.3977
 3049SOL    HW210589   5.363   2.403  10.897  0.7812 -0.3345  1.3499
 3050SOL     OW10590   0.928   1.839   8.206 -0.1265 -0.5743  0.3396
 3050SOL    HW110591   0.967   1.910   8.257  0.4678 -0.9207  0.3786
 3050SOL    HW210592   0.876   1.884   8.139 -1.0555 -0.1188  1.3493
 3051SOL     OW10593   4.360   4.666   4.790 -0.1064 -0.0705 -0.2485
 3051SOL    HW110594   4.394   4.590   4.837 -2.5775 -0.5754  0.8981
 3051SOL    HW210595   4.297   4.704   4.851 -0.2296  1.8588 -1.5276
 3052SOL     OW10596   4.510   4.342  10.115 -0.2997  0.1403  0.2282
 3052SOL    HW110597   4.503   4.373  10.025  0.9880 -0.8216 -0.2254
 3052SOL    HW210598   4.601   4.359  10.140 -0.6219  0.3552  1.3460
 3053SOL     OW10599   4.701   0.559   5.678  0.5389 -0.0760 -0.3645
 3053SOL    HW110600   4.636   0.490   5.664 -1.5602  1.6803  0.0611
 3053SOL    HW210601   4.762   0.551   5.605 -0.3900 -1.5450 -1.0210
 3054SOL     OW10602   4.192   2.727   5.306  0.1318 -0.2715 -0.3391
 3054SOL    HW110603   4.193   2.812   5.349 -0.5434  0.5031 -1.7774
 3054SOL    HW210604   4.107   2.690   5.328 -0.0299 -0.0725 -0.6178
 3055SOL     OW10605   7.592   5.048  10.593 -0.0189 -0.5154  0.1056
 3055SOL    HW110606   7.647   5.127  10.585 -1.0205  0.1432 -0.4845
 3055SOL    HW210607   7.603   5.003  10.509  0.9384 -1.2923  0.6204
 3056SOL     OW10608   0.572   2.695   2.745 -0.2055  0.3732  0.1419
 3056SOL    HW110609   0.646   2.727   2.796  1.2074 -0.2090 -1.4726
 3056SOL    HW210610   0.600   2.610   2.711 -1.8298 -0.1300 -0.0663
 3057SOL     OW10611   2.128   7.027  12.356  0.3172 -0.5852 -0.2410
 3057SOL    HW110612   2.098   7.118  12.363  0.9807 -0.1897 -2.0257
 3057SOL    HW210613   2.119   6.992  12.445  2.0274  1.8477  1.0319
 3058SOL     OW10614   2.529   0.630   3.947 -0.1438 -0.1256 -0.2934
 3058SOL    HW110615   2.606   0.687   3.938  1.5283 -2.1852 -0.0045
 3058SOL    HW210616   2.540   0.565   3.876 -0.3022 -1.8329  1.1766
 3059SOL     OW10617   1.493   0.765   2.247  0.2198 -0.2232 -0.3662
 3059SOL    HW110618   1.554   0.705   2.203 -0.2167 -0.4826 -0.6268
 3059SOL    HW210619   1.500   0.847   2.198  2.3214  0.6298  1.1969
 3060SOL     OW10620   0.563   1.395   9.471 -0.0082 -0.1852 -0.3999
 3060SOL    HW110621   0.528   1.349   9.395  0.1899 -0.8263 -0.1048
 3060SOL    HW210622   0.658   1.386   9.463  0.0599  0.5822 -0.5915
 3061SOL     OW10623   5.628   7.670   2.572  0.2350  0.1533  0.4425
 3061SOL    HW110624   5.598   7.711   2.491  1.9895 -0.1636 -0.4038
 3061SOL    HW210625   5.666   7.741   2.623 -1.0620  0.3918  1.1125
 3062SOL     OW10626   7.272   1.045   4.989 -0.1184  0.2584 -0.8444
 3062SOL    HW110627   7.197   0.993   5.018 -0.1513  0.4714 -0.5363
 3062SOL    HW210628   7.244   1.136   5.003 -0.7424  0.4457 -3.0274
 3063SOL     OW10629   4.541   7.027   0.873  0.0025  0.6240  0.0166
 3063SOL    HW110630   4.548   7.120   0.895  0.9814  0.7967 -0.9694
 3063SOL    HW210631   4.541   7.024   0.778  2.5063 -0.4959 -0.0464
 3064SOL     OW10632   3.974   7.246   1.876 -0.2940  0.2715 -0.2523
 3064SOL    HW110633   3.908   7.272   1.812  0.1703 -0.4565 -1.0560
 3064SOL    HW210634   3.955   7.153   1.892  0.9550 -0.1444 -1.0459
 3065SOL     OW10635   6.092   3.123   0.446 -0.2999  0.4909 -0.0598
 3065SOL    HW110636   6.006   3.088   0.425 -0.5763 -0.1925  2.0342
 3065SOL    HW210637   6.146   3.101   0.370 -1.7357  0.1467 -1.0174
 3066SOL     OW10638   2.872   0.752   1.860 -0.2877  0.1570 -0.1154
 3066SOL    HW110639   2.958   0.727   1.893 -0.9702 -0.6362  1.1211
 3066SOL    HW210640   2.880   0.846   1.840  1.0746 -0.0806 -0.8019
 3067SOL     OW10641   7.215   0.288   1.166 -0.6214 -0.1395  0.3907
 3067SOL    HW110642   7.203   0.375   1.127 -0.9972  0.3267  1.4708
 3067SOL    HW210643   7.160   0.230   1.115  0.3666  0.0612 -0.9432
 3068SOL     OW10644   4.701   6.489   6.811  0.6226  0.1647 -0.0557
 3068SOL    HW110645   4.705   6.409   6.863 -2.2686 -0.0515 -0.0068
 3068SOL    HW210646   4.716   6.559   6.874  0.4486 -0.2371  0.4459
 3069SOL     OW10647   5.379   5.270   9.844  0.3925  0.1177  0.5980
 3069SOL    HW110648   5.452   5.322   9.879  0.1390  0.3566  0.7798
 3069SOL    HW210649   5.319   5.335   9.808  0.4131 -0.0994  0.1668
 3070SOL     OW10650   2.959   6.685   4.600  0.1254  0.0932  0.5194
 3070SOL    HW110651   2.926   6.627   4.668  0.3046 -1.3134 -0.5418
 3070SOL    HW210652   2.921   6.770   4.621 -0.5262 -0.4921  1.8624
 3071SOL     OW10653   4.508   5.474   7.722  0.9183  0.3128 -0.8511
 3071SOL    HW110654   4.510   5.408   7.653  0.6802  1.0971 -1.6277
 3071SOL    HW210655   4.432   5.528   7.701  0.3131  0.0399  0.5425
 3072SOL     OW10656   3.841   3.784  11.376 -0.0625 -0.2663 -0.1706
 3072SOL    HW110657   3.834   3.761  11.469 -0.8612 -1.1467 -0.4285
 3072SOL    HW210658   3.753   3.767  11.341  0.7987 -2.1698 -1.5698
 3073SOL     OW10659   2.144   6.506   7.388  0.1828 -0.0334 -0.5098
 3073SOL    HW110660   2.089   6.488   7.312  1.3519 -1.0453 -1.1664
 3073SOL    HW210661   2.164   6.420   7.424 -0.8119  0.4533  1.3265
 3074SOL     OW10662   7.903   2.904   1.409 -0.1191 -0.2331  0.0327
 3074SOL    HW110663   7.808   2.911   1.395 -0.1948 -1.4172 -0.0852
 3074SOL    HW210664   7.935   2.852   1.336  0.9023  1.5534 -0.8531
 3075SOL     OW10665   2.013   2.619   7.944 -0.5729  0.3272 -0.0561
 3075SOL    HW110666   2.091   2.613   7.890 -0.6851 -0.8232 -0.1175
 3075SOL    HW210667   1.944   2.647   7.884 -0.3982  0.4638 -0.1947
 3076SOL     OW10668   5.622   2.818   2.547 -0.3006 -0.0162  0.1932
 3076SOL    HW110669   5.679   2.794   2.621  0.5298 -1.2857 -0.8128
 3076SOL    HW210670   5.664   2.895   2.509 -0.1762  0.0418  0.4404
 3077SOL     OW10671   4.135   1.757   3.786 -0.4393 -0.3395 -0.4593
 3077SOL    HW110672   4.154   1.663   3.790  0.5978 -0.1547 -0.6898
 3077SOL    HW210673   4.049   1.766   3.826  0.2933 -1.1456  1.3878
 3078SOL     OW10674   4.988   5.019   5.788  0.0601 -0.4935  0.5525
 3078SOL    HW110675   5.058   5.048   5.729 -1.4848  0.0481 -1.0827
 3078SOL    HW210676   4.981   4.925   5.771  1.0477 -0.7433  1.4627
 3079SOL     OW10677   2.952   1.424   5.733  0.0040 -0.5622 -0.0491
 3079SOL    HW110678   2.912   1.495   5.783 -0.2324 -0.9485  0.3067
 3079SOL    HW210679   3.043   1.452   5.721 -0.7297  1.1936 -2.4163
 3080SOL     OW10680   2.806   3.998   0.202 -0.2267 -0.6630  0.5530
 3080SOL    HW110681   2.751   3.994   0.280  0.4490 -1.8119  1.0039
 3080SOL    HW210682   2.868   3.926   0.214 -0.2898 -1.0377 -1.1852
 3081SOL     OW10683   1.889   5.549   2.635 -0.0901 -0.4677 -0.1262
 3081SOL    HW110684   1.923   5.461   2.649 -0.0340 -0.2170  1.6582
 3081SOL    HW210685   1.810   5.537   2.582  0.2160 -1.5317 -0.3569
 3082SOL     OW10686   5.892   4.742   5.222 -0.3285  0.1552 -0.3222
 3082SOL    HW110687   5.798   4.758   5.224 -0.3150  0.7254  3.6039
 3082SOL    HW210688   5.908   4.684   5.296  2.5798  1.2984  0.0869
 3083SOL     OW10689   2.797   5.054   5.384  0.4858 -0.1195 -0.3486
 3083SOL    HW110690   2.776   4.962   5.368  0.9378 -0.5360  1.2563
 3083SOL    HW210691   2.887   5.053   5.415 -0.1337  0.5853  1.6774
 3084SOL     OW10692   5.346   6.933   2.188 -0.1258 -0.5231 -0.5321
 3084SOL    HW110693   5.349   7.025   2.159 -0.3702  0.1903  1.5645
 3084SOL    HW210694   5.386   6.934   2.275 -2.2221 -1.9778  0.5239
 3085SOL     OW10695   7.213   4.460   2.960  0.4809  0.1235  0.0179
 3085SOL    HW110696   7.261   4.508   3.028  0.8800 -0.2318 -0.0129
 3085SOL    HW210697   7.121   4.474   2.982  0.5124  2.4333 -1.0074
 3086SOL     OW10698   0.325   1.134   8.652  0.2724 -0.2450  0.4666
 3086SOL    HW110699   0.234   1.112   8.634 -0.3088  1.4947  1.0200
 3086SOL    HW210700   0.363   1.055   8.690 -1.0991 -0.8843  0.5503
 3087SOL     OW10701   5.135   3.718  10.311  0.5077  0.2032 -0.3699
 3087SOL    HW110702   5.160   3.734  10.402  1.4115  1.4115 -0.7947
 3087SOL    HW210703   5.215   3.685  10.270  0.2242  0.0651 -0.8095
 3088SOL     OW10704   0.418   3.955  12.415 -0.1619  0.0683 -0.3290
 3088SOL    HW110705   0.340   4.011  12.417  0.9253  2.0403  4.9088
 3088SOL    HW210706   0.489   4.014  12.387  0.2860  0.0399  0.6987
 3089SOL     OW10707   6.910   4.007   2.495 -0.2990 -0.4387 -0.4865
 3089SOL    HW110708   6.965   3.931   2.473 -0.5592 -0.9053  0.4373
 3089SOL    HW210709   6.888   3.995   2.587  0.7146  1.4279  0.0508
 3090SOL     OW10710   5.697   2.617  12.020 -0.2384 -0.4204 -0.7559
 3090SOL    HW110711   5.627   2.626  12.084  0.7328 -0.8024  0.3822
 3090SOL    HW210712   5.679   2.685  11.955  0.2505  1.8513  1.3275
 3091SOL     OW10713   5.310   0.425   1.912  0.5409 -0.0968  0.4115
 3091SOL    HW110714   5.242   0.422   1.979  0.3212  0.1062  0.2011
 3091SOL    HW210715   5.347   0.336   1.912  1.3236  0.2067  1.5831
 3092SOL     OW10716   6.539   6.314   9.844  0.1576  0.5206 -0.5064
 3092SOL    HW110717   6.605   6.306   9.775  1.1627 -1.2626  0.5773
 3092SOL    HW210718   6.589   6.312   9.926 -1.1216  0.9805  0.3233
 3093SOL     OW10719   6.655   7.089  11.253 -0.2042  0.4841  0.6869
 3093SOL    HW110720   6.728   7.150  11.264  0.3305  0.1052 -0.5370
 3093SOL    HW210721   6.577   7.141  11.271  0.2821  1.3211  0.4464
 3094SOL     OW10722   3.826   6.689   5.732  0.2814  0.6371 -0.0113
 3094SOL    HW110723   3.878   6.669   5.810 -0.9166  0.0574  0.6590
 3094SOL    HW210724   3.807   6.603   5.694 -0.1501  0.8441 -0.2672
 3095SOL     OW10725   4.989   7.046  10.566  0.2534 -0.1053  0.3369
 3095SOL    HW110726   4.938   6.981  10.614  1.6845 -1.0886  0.5902
 3095SOL    HW210727   4.935   7.067  10.490 -1.4463  0.4719  1.6378
 3096SOL     OW10728   0.776   4.869   3.629  0.3273  0.0146  0.4558
 3096SOL    HW110729   0.797   4.869   3.536 -2.7500  0.5741 -0.3436
 3096SOL    HW210730   0.811   4.951   3.662  1.8780 -0.4120 -0.0559
 3097SOL     OW10731   5.332   0.750   9.579 -0.3106  0.1733  0.3032
 3097SOL    HW110732   5.403   0.710   9.628 -1.5907 -0.8137  1.4317
 3097SOL    HW210733   5.370   0.773   9.495  0.7899 -2.3991  0.0138
 3098SOL     OW10734   2.828   4.205   8.518  0.3128 -0.0287 -0.2226
 3098SOL    HW110735   2.802   4.267   8.450  1.3213  0.6870  0.0234
 3098SOL    HW210736   2.880   4.257   8.579  1.0271 -1.0760  0.0837
 3099SOL     OW10737   0.340   5.226  11.625  0.4333 -0.3125 -0.1191
 3099SOL    HW110738   0.352   5.131  11.616  5.5387  0.0145  0.1474
 3099SOL    HW210739   0.317   5.239  11.717 -2.6413 -1.2462 -0.6462
 3100SOL     OW10740   1.370   5.209  11.332  0.8292  0.3372  0.3066
 3100SOL    HW110741   1.396   5.278  11.272 -0.4036 -0.9032 -1.7820
 3100SOL    HW210742   1.279   5.230  11.355  1.1270  0.5250  1.3750
 3101SOL     OW10743   3.169   7.448   4.455 -0.3715 -0.2348 -0.9682
 3101SOL    HW110744   3.091   7.500   4.439 -0.9539 -0.5782  0.5413
 3101SOL    HW210745   3.152   7.405   4.539  1.1709 -0.8271 -0.9261
 3102SOL     OW10746   0.574   7.069   6.249 -0.1881  0.1757 -0.4415
 3102SOL    HW110747   0.618   7.113   6.176 -1.0011 -0.4426 -1.3451
 3102SOL    HW210748   0.603   7.115   6.327  0.4483  1.0756 -1.1910
 3103SOL     OW10749   2.926   5.751   0.931 -0.2574 -0.3484  0.4616
 3103SOL    HW110750   2.999   5.812   0.938 -1.4337  1.0471  1.1878
 3103SOL    HW210751   2.920   5.712   1.018  1.1143 -2.3343 -0.2608
 3104SOL     OW10752   2.921   1.612   4.824 -0.4066  0.1604  0.5140
 3104SOL    HW110753   2.837   1.612   4.778 -0.2536 -0.2535  0.2323
 3104SOL    HW210754   2.981   1.656   4.765 -0.0475 -0.9764  0.0006
 3105SOL     OW10755   0.743   1.568  10.143 -0.1239 -0.1840  0.1475
 3105SOL    HW110756   0.785   1.603  10.065 -0.1299 -0.5097 -0.0017
 3105SOL    HW210757   0.667   1.625  10.157 -0.4318 -0.4520 -0.3967
 3106SOL     OW10758   6.493   5.270  12.033 -0.5381  0.4104  0.2785
 3106SOL    HW110759   6.408   5.278  11.988 -0.5098  0.7835  0.2854
 3106SOL    HW210760   6.529   5.359  12.030 -0.0124  0.1904  0.0190
 3107SOL     OW10761   3.473   0.676   3.524  0.5628 -0.1549  0.7911
 3107SOL    HW110762   3.419   0.729   3.583 -1.4612  0.8557 -1.7923
 3107SOL    HW210763   3.445   0.586   3.542  0.0720  0.1130  1.4257
 3108SOL     OW10764   2.557   0.767   1.705  0.4149  0.3657  0.2194
 3108SOL    HW110765   2.568   0.846   1.653 -0.2362 -0.8205 -1.8411
 3108SOL    HW210766   2.633   0.766   1.764  1.9115  1.1354 -1.5995
 3109SOL     OW10767   6.422   6.642  11.995  0.3271  0.8451  0.3565
 3109SOL    HW110768   6.448   6.551  12.005  0.9539  1.1191  1.3057
 3109SOL    HW210769   6.355   6.640  11.927  0.4405 -0.3000  0.2575
 3110SOL     OW10770   7.822   4.346  11.651 -0.1683  0.1430  0.2021
 3110SOL    HW110771   7.783   4.287  11.715  0.7115 -1.6968 -0.8762
 3110SOL    HW210772   7.915   4.348  11.673  0.1519 -0.5411 -0.9909
 3111SOL     OW10773   4.593   5.225   6.522 -0.1658  0.4769  0.4388
 3111SOL    HW110774   4.659   5.188   6.462  0.7015  1.7346  0.5815
 3111SOL    HW210775   4.514   5.233   6.469 -0.0753 -0.5791  0.1156
 3112SOL     OW10776   0.506   0.586   1.722  0.1344  0.2974  0.0400
 3112SOL    HW110777   0.518   0.497   1.688  1.1644  0.5372 -0.2646
 3112SOL    HW210778   0.418   0.611   1.694  1.1616  0.7762 -3.1737
 3113SOL     OW10779   6.655   3.729   0.597  0.0511 -0.5069  0.0178
 3113SOL    HW110780   6.657   3.668   0.523  0.4455  0.7839 -1.0910
 3113SOL    HW210781   6.743   3.727   0.632  0.1977 -0.2423 -0.3238
 3114SOL     OW10782   6.190   7.069   3.944  0.1172  0.0305  0.1878
 3114SOL    HW110783   6.145   7.153   3.936  2.2323  1.1100 -1.3810
 3114SOL    HW210784   6.148   7.012   3.880  1.6520  1.4016 -2.1576
 3115SOL     OW10785   1.724   5.754   2.797 -0.7258 -0.4473  0.2499
 3115SOL    HW110786   1.762   5.700   2.728 -1.3978 -1.2750  0.5088
 3115SOL    HW210787   1.639   5.714   2.815 -0.9067  0.2378  0.9985
 3116SOL     OW10788   6.655   1.871   9.758 -0.3863 -0.0759 -0.6686
 3116SOL    HW110789   6.712   1.948   9.750  2.7229 -2.0503  0.9222
 3116SOL    HW210790   6.673   1.819   9.680 -1.4727  0.1143 -1.0695
 3117SOL     OW10791   3.384   4.987   9.049  0.1015 -0.6947  0.3649
 3117SOL    HW110792   3.455   4.958   9.107  0.3188 -0.8259  0.0345
 3117SOL    HW210793   3.304   4.959   9.094  0.2233 -0.0078  1.0403
 3118SOL     OW10794   0.195   7.296   7.018  0.0573 -0.1866 -0.1533
 3118SOL    HW110795   0.109   7.334   7.001  0.6330  1.4638  0.3805
 3118SOL    HW210796   0.252   7.372   7.035  0.9769 -1.3400  2.4008
 3119SOL     OW10797   6.335   2.203   1.993  0.1508  0.0282 -0.4258
 3119SOL    HW110798   6.328   2.296   2.017  1.1026 -0.7205  3.5149
 3119SOL    HW210799   6.245   2.173   1.988 -0.2508  0.3230  2.8867
 3120SOL     OW10800   6.348   4.358  11.790 -0.0711  0.0318  0.1153
 3120SOL    HW110801   6.320   4.414  11.862  2.1152 -0.8739  1.7915
 3120SOL    HW210802   6.375   4.276  11.833 -0.0990 -1.0966 -1.8991
 3121SOL     OW10803   4.827   7.423   4.610  0.0023 -0.3418  0.3186
 3121SOL    HW110804   4.921   7.432   4.593 -0.0525 -1.6284 -0.8349
 3121SOL    HW210805   4.794   7.374   4.535 -2.3641  3.5236 -1.5256
 3122SOL     OW10806   5.943   7.153  10.140 -0.2752  0.4723  0.6107
 3122SOL    HW110807   5.893   7.081  10.100 -0.5830  0.3599  1.1884
 3122SOL    HW210808   5.880   7.224  10.148 -0.2553  0.4479  1.0199
 3123SOL     OW10809   7.629   4.642   9.052 -0.5705 -0.0428 -0.5602
 3123SOL    HW110810   7.564   4.712   9.050  0.7244  1.2263 -2.1957
 3123SOL    HW210811   7.684   4.662   9.128 -0.3004  0.6706 -0.9297
 3124SOL     OW10812   4.199   4.398   0.134  0.1599  0.1630 -0.1638
 3124SOL    HW110813   4.204   4.351   0.217 -0.5243  0.4238  0.0326
 3124SOL    HW210814   4.280   4.376   0.089  0.1591 -0.6452  0.2174
 3125SOL     OW10815   1.843   6.682   1.385  0.7425  0.2915  0.2553
 3125SOL    HW110816   1.762   6.723   1.414  0.2094  0.1541 -0.9863
 3125SOL    HW210817   1.905   6.755   1.377  0.1469  0.7062 -0.7623
 3126SOL     OW10818   3.493   6.540   7.985  0.1292  0.1196 -0.4083
 3126SOL    HW110819   3.479   6.506   7.897 -0.2949 -0.8748  0.0336
 3126SOL    HW210820   3.579   6.582   7.982 -0.3663  1.1238 -1.5965
 3127SOL     OW10821   6.298   1.687   0.771  0.1206  0.0396  0.2550
 3127SOL    HW110822   6.393   1.698   0.782 -0.1590 -0.0347  3.5968
 3127SOL    HW210823   6.285   1.593   0.765  0.3731  0.1005 -2.8717
 3128SOL     OW10824   4.718   4.662   9.500  0.2256  0.1696  0.2236
 3128SOL    HW110825   4.731   4.756   9.488  0.1577  0.2195  0.5484
 3128SOL    HW210826   4.757   4.642   9.585 -1.0163  0.1646  0.8085
 3129SOL     OW10827   7.254   0.000   9.021 -0.1847 -0.5192 -0.1852
 3129SOL    HW110828   7.181   0.035   9.073  0.1970 -1.7881  1.2850
 3129SOL    HW210829   7.213  -0.034   8.942 -1.4001 -2.2964  1.1392
 3130SOL     OW10830   1.891   5.156   3.562 -0.2483  0.2384 -0.1982
 3130SOL    HW110831   1.964   5.210   3.532 -0.3915  0.5776  0.0512
 3130SOL    HW210832   1.839   5.215   3.616  0.2647 -0.4914  1.1302
 3131SOL     OW10833   5.036   5.828   7.125 -0.2470 -0.1040  0.2617
 3131SOL    HW110834   5.029   5.890   7.198  0.4950 -1.2851  1.3750
 3131SOL    HW210835   5.124   5.791   7.133  0.2601  0.4850 -1.8845
 3132SOL     OW10836   0.530   1.962   5.984  0.2044 -0.4614  0.4985
 3132SOL    HW110837   0.449   1.936   5.939  0.6362  1.1865 -1.3605
 3132SOL    HW210838   0.557   1.883   6.031 -0.5588 -2.1858 -1.7582
 3133SOL     OW10839   1.515   0.717   4.825 -0.1275 -0.5591 -0.5045
 3133SOL    HW110840   1.563   0.775   4.883 -0.1405 -0.3724 -0.6813
 3133SOL    HW210841   1.577   0.646   4.806  0.3167  0.0143 -1.2597
 3134SOL     OW10842   0.078   7.898   6.830  0.6968  0.2897  0.7641
 3134SOL    HW110843  -0.014   7.887   6.809  0.6064  0.2168  1.1918
 3134SOL    HW210844   0.080   7.908   6.925  1.1423  0.1416  0.7731
 3135SOL     OW10845   6.563   7.536   6.195  0.2697  0.0361 -0.2177
 3135SOL    HW110846   6.486   7.593   6.193 -0.4073 -0.7966  0.4989
 3135SOL    HW210847   6.592   7.530   6.104 -0.8024  0.0153 -0.5758
 3136SOL     OW10848   0.190   7.879   5.823 -0.2968  0.5804  0.3393
 3136SOL    HW110849   0.201   7.941   5.750  1.1768  1.1303  0.9739
 3136SOL    HW210850   0.204   7.933   5.902 -0.2213 -0.3184  0.9511
 3137SOL     OW10851   7.020   0.184   2.246  0.5833 -0.4937 -0.1789
 3137SOL    HW110852   6.985   0.208   2.332 -0.9744 -0.4597 -0.8054
 3137SOL    HW210853   6.954   0.212   2.184  2.6129  1.4572 -1.6097
 3138SOL     OW10854   5.881   1.522   6.704 -0.3091 -0.2732 -0.2202
 3138SOL    HW110855   5.829   1.453   6.746  0.4744 -0.0374  1.2130
 3138SOL    HW210856   5.970   1.488   6.705 -0.2479 -0.2174 -1.6699
 3139SOL     OW10857   7.670   0.092   3.594 -0.4338  0.3947  0.6788
 3139SOL    HW110858   7.574   0.093   3.601 -0.4326  2.5272  0.9937
 3139SOL    HW210859   7.701   0.111   3.682  0.2794 -0.0036  0.5211
 3140SOL     OW10860   3.365   3.154   1.206 -0.0837 -0.2718 -0.1101
 3140SOL    HW110861   3.455   3.173   1.180  0.0360  0.0562  0.5147
 3140SOL    HW210862   3.346   3.218   1.274 -0.6575 -0.5854  0.0326
 3141SOL     OW10863   4.771   5.504   8.063 -0.2242  0.2466 -0.1964
 3141SOL    HW110864   4.828   5.431   8.039  0.3731  0.1991  1.2345
 3141SOL    HW210865   4.735   5.479   8.149 -0.1497  1.5461  0.2353
 3142SOL     OW10866   0.438   5.861   6.326  0.1437 -0.1918 -0.2136
 3142SOL    HW110867   0.413   5.897   6.241  0.9184  0.0736 -0.3400
 3142SOL    HW210868   0.444   5.937   6.383  0.8258 -0.2170 -0.2379
 3143SOL     OW10869   7.281   2.646   4.015  0.2279 -0.1133  0.4177
 3143SOL    HW110870   7.292   2.555   4.044 -0.0446  0.1329  1.3241
 3143SOL    HW210871   7.254   2.693   4.094 -0.1836  0.6514 -0.1646
 3144SOL     OW10872   1.014   1.121   6.753  0.2289 -0.0799 -0.2125
 3144SOL    HW110873   1.055   1.202   6.783  2.0444 -0.5934 -1.1710
 3144SOL    HW210874   1.079   1.080   6.697 -1.2727 -1.4286 -1.0705
 3145SOL     OW10875   6.346   1.850   1.697 -0.1740 -0.3864 -0.2038
 3145SOL    HW110876   6.438   1.856   1.671  0.0228 -0.5890  0.4263
 3145SOL    HW210877   6.320   1.940   1.716 -0.2640 -0.2613 -0.9104
 3146SOL     OW10878   5.482   3.163   7.009 -0.4107  0.0636  0.2522
 3146SOL    HW110879   5.504   3.073   7.034 -0.5078 -0.0482 -0.0652
 3146SOL    HW210880   5.400   3.155   6.960  0.1152  0.2175 -0.6647
 3147SOL     OW10881   7.291   4.794   5.659  0.2215  0.0541  0.4547
 3147SOL    HW110882   7.236   4.871   5.670 -0.2829 -0.5313  2.4518
 3147SOL    HW210883   7.353   4.798   5.733 -0.5304 -1.9956  1.2777
 3148SOL     OW10884   6.537   5.391  10.795  0.4312 -0.1009 -0.3213
 3148SOL    HW110885   6.615   5.339  10.814  1.6805  1.5619 -0.6198
 3148SOL    HW210886   6.557   5.436  10.713 -0.1495  1.5603  0.3827
 3149SOL     OW10887   5.827   3.662   5.820 -0.4743 -0.5954 -0.0157
 3149SOL    HW110888   5.754   3.651   5.881 -0.7007  0.1109 -0.1535
 3149SOL    HW210889   5.828   3.581   5.768 -1.2391 -0.5544 -0.0963
 3150SOL     OW10890   3.653   5.723   0.189 -0.1466  0.3080 -0.2646
 3150SOL    HW110891   3.680   5.803   0.235  0.1504 -0.0825  0.2465
 3150SOL    HW210892   3.675   5.739   0.098  2.6970 -0.3483  0.2273
 3151SOL     OW10893   7.035   3.072   5.233 -0.3688 -0.1090 -0.3945
 3151SOL    HW110894   6.946   3.040   5.246  0.4746 -2.5441 -0.0154
 3151SOL    HW210895   7.089   3.020   5.293  1.5919 -0.4966 -2.3245
 3152SOL     OW10896   4.767   3.194   3.215 -0.3075  1.0853  0.1748
 3152SOL    HW110897   4.822   3.271   3.198  0.4634  0.4270 -0.4124
 3152SOL    HW210898   4.746   3.200   3.308 -1.2229  2.6146 -0.0935
 3153SOL     OW10899   7.587   1.643   4.189 -0.2776 -0.2525  0.3917
 3153SOL    HW110900   7.591   1.568   4.248  1.1768 -0.5762 -0.0830
 3153SOL    HW210901   7.649   1.707   4.226 -0.2442  0.0230 -0.1273
 3154SOL     OW10902   5.596   0.280   6.995 -0.3063  0.5252  0.2315
 3154SOL    HW110903   5.619   0.193   6.962  0.0157 -0.0305  1.8402
 3154SOL    HW210904   5.613   0.339   6.921 -0.1996 -0.7237 -0.7729
 3155SOL     OW10905   3.911   2.164   1.414 -0.5770  0.3302  0.3669
 3155SOL    HW110906   3.920   2.258   1.427 -0.7032  0.2872  0.7929
 3155SOL    HW210907   3.829   2.155   1.365 -1.5935  0.3419  1.9771
 3156SOL     OW10908   3.866   4.254   3.343 -0.4992 -0.2704 -0.1761
 3156SOL    HW110909   3.843   4.328   3.288 -0.1370 -0.1155 -0.1230
 3156SOL    HW210910   3.818   4.180   3.305  0.3339 -0.3295 -1.1814
 3157SOL     OW10911   5.312   2.259  11.254 -0.2986  0.1778  0.5272
 3157SOL    HW110912   5.386   2.247  11.194 -0.9876 -0.5070 -0.1963
 3157SOL    HW210913   5.352   2.298  11.332  0.7607  0.2199 -0.0085
 3158SOL     OW10914   5.210   6.463   9.207  0.3917 -0.1561 -0.5992
 3158SOL    HW110915   5.301   6.459   9.179  1.0392  2.4186  0.7731
 3158SOL    HW210916   5.210   6.426   9.295  0.3760  0.7859 -0.1813
 3159SOL     OW10917   1.215   5.629   3.599  0.4018  0.6299  0.1154
 3159SOL    HW110918   1.261   5.666   3.523 -1.9290 -0.0544 -1.7427
 3159SOL    HW210919   1.167   5.554   3.563  0.6963 -0.8988  2.6862
 3160SOL     OW10920   6.657   5.187   2.353 -0.4009 -0.3131 -0.3203
 3160SOL    HW110921   6.749   5.170   2.370 -0.4069 -0.1054 -0.0875
 3160SOL    HW210922   6.629   5.112   2.299  0.6047  0.9702 -2.7849
 3161SOL     OW10923   3.336   5.699  12.234 -0.1313  0.2065 -0.5931
 3161SOL    HW110924   3.273   5.660  12.295 -0.0590 -0.5841 -1.0010
 3161SOL    HW210925   3.413   5.718  12.287 -0.1627 -0.2363 -0.3837
 3162SOL     OW10926   6.649   0.788   7.166  0.3413  0.1709  0.0949
 3162SOL    HW110927   6.585   0.740   7.219 -0.5566 -1.7152 -2.4738
 3162SOL    HW210928   6.597   0.855   7.121  0.0495 -1.3668 -2.0037
 3163SOL     OW10929   5.882   0.967   9.092 -0.9568  0.2751 -0.2028
 3163SOL    HW110930   5.883   0.935   9.182  0.6745 -1.5682 -0.8011
 3163SOL    HW210931   5.963   1.016   9.083 -0.2913 -0.9294 -1.0763
 3164SOL     OW10932   4.594   0.583   3.712 -0.0404 -0.1481  0.2772
 3164SOL    HW110933   4.592   0.553   3.803  0.4214  0.2275  0.4135
 3164SOL    HW210934   4.641   0.515   3.665  1.4764  0.5826  0.6810
 3165SOL     OW10935   7.031   4.909   3.393  0.2538  0.3227  0.2952
 3165SOL    HW110936   7.032   4.827   3.343 -0.7544  1.2226 -1.2788
 3165SOL    HW210937   6.956   4.900   3.452  0.7409 -0.2700  0.8362
 3166SOL     OW10938   0.437   4.270   3.630  0.1583 -0.3413 -0.1118
 3166SOL    HW110939   0.467   4.346   3.680 -1.3594  0.7930 -0.8358
 3166SOL    HW210940   0.513   4.244   3.578  0.2216  1.8887 -1.2628
 3167SOL     OW10941   2.618   2.051   3.168 -0.3391  0.3443 -0.3574
 3167SOL    HW110942   2.617   2.070   3.074  0.7557 -2.0695 -0.9389
 3167SOL    HW210943   2.664   2.126   3.207  0.2258  0.8343 -1.8888
 3168SOL     OW10944   3.942   3.463   5.040 -0.2108  0.4631  0.0017
 3168SOL    HW110945   3.958   3.508   5.123  0.4593  0.6445 -0.2210
 3168SOL    HW210946   3.847   3.448   5.039 -0.0708 -0.8202  1.4620
 3169SOL     OW10947   7.340   6.315   8.737 -0.1798  0.3330  0.5167
 3169SOL    HW110948   7.277   6.334   8.667 -0.3314 -0.8024  0.3178
 3169SOL    HW210949   7.408   6.381   8.726  0.5245 -0.6313 -1.6345
 3170SOL     OW10950   0.934   3.396   7.477  0.2835  0.2963  0.3166
 3170SOL    HW110951   0.987   3.430   7.549 -0.8325 -1.7968  2.2593
 3170SOL    HW210952   0.984   3.323   7.443  0.0932  0.3053  0.0166
 3171SOL     OW10953   3.045   0.058   2.909 -0.2099  0.4345 -0.1380
 3171SOL    HW110954   2.997   0.116   2.968  1.1126  1.3675  0.0488
 3171SOL    HW210955   3.095   0.116   2.853 -0.5814 -0.4783 -1.4769
 3172SOL     OW10956   2.928   1.996   9.683 -0.1482 -0.3306  0.4352
 3172SOL    HW110957   2.944   1.994   9.589 -0.2401 -0.5646  0.4252
 3172SOL    HW210958   3.014   1.982   9.723 -0.3618 -1.9579  0.3848
 3173SOL     OW10959   6.483   5.446   4.187 -0.4218  0.1433  0.5854
 3173SOL    HW110960   6.541   5.428   4.112 -2.3112  2.0074 -1.4848
 3173SOL    HW210961   6.505   5.379   4.251 -0.9132 -3.7623 -2.9118
 3174SOL     OW10962   4.539   6.967   8.812 -0.6620 -0.6600 -0.4971
 3174SOL    HW110963   4.625   6.948   8.850 -0.1215  0.5405 -1.0936
 3174SOL    HW210964   4.516   6.886   8.765 -0.5223 -1.4997  0.8290
 3175SOL     OW10965   4.435   2.960   1.729 -0.6543  0.2149  0.3128
 3175SOL    HW110966   4.357   3.013   1.746 -0.5491  0.5209 -0.1365
 3175SOL    HW210967   4.470   2.995   1.648  0.2025  0.3819  0.7428
 3176SOL     OW10968   2.287   5.857   8.013 -0.4466  0.2375 -0.2871
 3176SOL    HW110969   2.263   5.947   8.037 -0.1088  0.3730 -0.4562
 3176SOL    HW210970   2.235   5.838   7.936 -0.5006  0.2971 -0.2651
 3177SOL     OW10971   4.184   0.270  11.045 -0.2852 -0.3825 -0.3783
 3177SOL    HW110972   4.175   0.365  11.053 -1.0770 -0.4882  0.0211
 3177SOL    HW210973   4.278   0.256  11.033 -0.2186  0.4884 -0.9902
 3178SOL     OW10974   6.198   2.171  10.118 -0.4478  0.2127 -0.3586
 3178SOL    HW110975   6.114   2.140  10.154 -0.1326 -0.1824  0.0462
 3178SOL    HW210976   6.179   2.260  10.088 -0.4745  1.0092  1.8167
 3179SOL     OW10977   3.117   3.242   0.366  0.4166 -0.6313  0.2493
 3179SOL    HW110978   3.153   3.284   0.288  2.1411 -0.8782  0.8581
 3179SOL    HW210979   3.070   3.165   0.333  0.0420 -0.0363 -0.6214
 3180SOL     OW10980   3.061   0.606   5.246 -0.6369  0.0249 -0.0373
 3180SOL    HW110981   3.108   0.689   5.247 -0.7136  0.1083  2.0259
 3180SOL    HW210982   3.130   0.540   5.238 -0.5731  0.2552 -1.6585
 3181SOL     OW10983   0.644   5.613   2.131  0.0296 -0.4221  0.2750
 3181SOL    HW110984   0.700   5.563   2.191  3.1314 -1.6928 -3.2386
 3181SOL    HW210985   0.701   5.682   2.098 -0.8082 -0.9601 -2.5441
 3182SOL     OW10986   5.180   5.787  12.397  0.3663 -0.4113  0.3584
 3182SOL    HW110987   5.128   5.729  12.452  0.7598 -0.9639  0.1492
 3182SOL    HW210988   5.120   5.812  12.326 -0.0092 -0.0282  0.8068
 3183SOL     OW10989   6.905   3.246   8.724 -0.5912 -0.3266 -0.2980
 3183SOL    HW110990   6.843   3.185   8.684 -1.6994  0.9093 -0.5498
 3183SOL    HW210991   6.916   3.215   8.813  0.3529 -1.9778 -0.9593
 3184SOL     OW10992   2.469   1.005   8.584  0.2703  0.1409  0.3151
 3184SOL    HW110993   2.468   1.094   8.620  4.7098  0.0894  1.2247
 3184SOL    HW210994   2.418   1.012   8.503  1.9040  4.1179 -0.6474
 3185SOL     OW10995   0.114   3.826   9.822 -0.2332  0.1294  0.3146
 3185SOL    HW110996   0.030   3.869   9.839 -0.0263  0.5351  0.3300
 3185SOL    HW210997   0.120   3.820   9.727 -0.6369 -0.6257  0.3299
 3186SOL     OW10998   0.353   0.510   8.363  0.0170 -0.1114  0.0184
 3186SOL    HW110999   0.390   0.546   8.283  1.6004 -0.4118  0.5747
 3186SOL    HW211000   0.386   0.567   8.433  2.5434 -2.4571  0.9163
 3187SOL     OW11001   1.599   3.437  12.237 -0.2842 -0.0051 -0.6462
 3187SOL    HW111002   1.694   3.449  12.243 -0.3339  0.1704 -0.0654
 3187SOL    HW211003   1.587   3.375  12.166  0.1971  0.7885 -1.4455
 3188SOL     OW11004   2.143   7.082   3.533  0.1298  0.4473  0.2310
 3188SOL    HW111005   2.100   7.163   3.506 -2.4641 -0.8789  0.0614
 3188SOL    HW211006   2.128   7.021   3.460  0.5174 -0.6891  1.0685
 3189SOL     OW11007   3.927   0.500   2.210  0.0329 -0.4677 -0.0852
 3189SOL    HW111008   4.004   0.555   2.227 -1.9923  3.0318 -1.0947
 3189SOL    HW211009   3.881   0.496   2.293  0.5214 -1.2462  0.1519
 3190SOL     OW11010   3.955   1.992   9.321  0.2901  0.6100 -0.1710
 3190SOL    HW111011   3.971   1.942   9.401 -0.6468  0.4134 -0.0858
 3190SOL    HW211012   3.956   2.084   9.349 -0.1183  0.5397  0.0978
 3191SOL     OW11013   7.223   4.393   0.064 -0.0881  0.0864 -0.1321
 3191SOL    HW111014   7.255   4.358  -0.019 -1.6479  0.7741 -1.0676
 3191SOL    HW211015   7.183   4.319   0.108  2.4826 -0.7666  1.0064
 3192SOL     OW11016   6.436   0.706  10.692 -0.4842  0.3809 -0.6446
 3192SOL    HW111017   6.399   0.794  10.683  0.3676  1.1876  2.3024
 3192SOL    HW211018   6.516   0.720  10.743 -0.7125 -2.1557  0.5547
 3193SOL     OW11019   0.227   2.072   9.818 -0.4233  0.0819  0.3959
 3193SOL    HW111020   0.135   2.084   9.840 -0.9168 -2.2018 -0.2244
 3193SOL    HW211021   0.268   2.155   9.844 -2.3954  0.6848  1.8883
 3194SOL     OW11022   5.887   0.060   8.395 -0.5138 -0.2468 -0.1469
 3194SOL    HW111023   5.801   0.020   8.386  0.6441 -3.0028 -0.1914
 3194SOL    HW211024   5.947  -0.003   8.353  1.5926  1.1903  0.5377
 3195SOL     OW11025   0.708   0.838   5.806 -0.0282  0.4560 -0.1894
 3195SOL    HW111026   0.724   0.763   5.863 -0.7296  0.7140  0.3573
 3195SOL    HW211027   0.693   0.799   5.719 -1.5224 -0.1437  0.2999
 3196SOL     OW11028   3.335   0.580   5.268  0.2136 -0.3184 -0.5412
 3196SOL    HW111029   3.384   0.564   5.187  2.7877  0.3997  0.7660
 3196SOL    HW211030   3.401   0.578   5.337 -1.9484 -1.3236  1.6490
 3197SOL     OW11031   0.623   2.645   3.052 -0.1291  0.1425 -0.3765
 3197SOL    HW111032   0.532   2.617   3.046 -0.7016  1.8778 -0.3379
 3197SOL    HW211033   0.673   2.569   3.023 -1.4936 -1.3800  1.0651
 3198SOL     OW11034   3.199   3.862  10.837  0.4809 -0.7643 -0.1808
 3198SOL    HW111035   3.146   3.789  10.804 -1.3035 -0.2074  1.2877
 3198SOL    HW211036   3.275   3.820  10.878 -0.2023 -1.7627  0.0996
 3199SOL     OW11037   2.077   1.542  12.099 -0.1837  0.1635 -0.2411
 3199SOL    HW111038   2.034   1.604  12.040 -2.2442 -0.7493  0.2324
 3199SOL    HW211039   2.058   1.575  12.186 -2.8834 -1.9672  0.1128
 3200SOL     OW11040   5.762   4.903   1.322  0.4981  0.1954  0.0615
 3200SOL    HW111041   5.854   4.877   1.314 -0.1236 -2.0833 -0.3276
 3200SOL    HW211042   5.725   4.841   1.385 -1.2354 -0.3033 -1.3503
 3201SOL     OW11043   0.254   6.243   5.254 -0.4588 -0.8296 -0.4403
 3201SOL    HW111044   0.247   6.148   5.250 -2.5852 -0.6953 -0.6813
 3201SOL    HW211045   0.168   6.276   5.228 -0.6174  1.1021  2.0943
 3202SOL     OW11046   7.938   3.596   8.862  0.4332  0.8512 -0.2115
 3202SOL    HW111047   7.976   3.603   8.775  1.0696  1.6617  0.1132
 3202SOL    HW211048   7.854   3.553   8.849  1.0191 -0.0692 -1.0784
 3203SOL     OW11049   5.903   2.484   2.995 -0.2637  0.3720 -0.0566
 3203SOL    HW111050   5.837   2.424   3.029  0.8122 -0.5390  0.4801
 3203SOL    HW211051   5.976   2.428   2.968  0.9585  1.4477  0.8633
 3204SOL     OW11052   3.844   6.012   3.792  0.5040 -0.6417  0.0858
 3204SOL    HW111053   3.784   6.062   3.846 -0.1254 -1.5610  0.2702
 3204SOL    HW211054   3.905   5.971   3.854  0.8077 -0.3711 -0.0333
 3205SOL     OW11055   2.113   7.623   5.757 -0.0066  0.0393 -0.0424
 3205SOL    HW111056   2.146   7.694   5.813 -0.9629  0.7075 -0.2939
 3205SOL    HW211057   2.064   7.566   5.817 -0.3117  0.2878 -0.0557
 3206SOL     OW11058   4.970   5.688   2.151 -0.3260 -0.8380 -0.1696
 3206SOL    HW111059   5.025   5.766   2.155 -0.8665 -0.4347  3.8203
 3206SOL    HW211060   5.031   5.615   2.163 -0.1669 -0.7882 -0.6549
 3207SOL     OW11061   7.044   6.655   0.094 -0.0472  0.1648  0.2761
 3207SOL    HW111062   7.068   6.625   0.006 -0.1609 -1.0140  0.6342
 3207SOL    HW211063   7.107   6.725   0.113  0.6243 -0.2580 -0.3381
 3208SOL     OW11064   1.715   1.054   0.886 -0.8023 -0.2729 -0.2052
 3208SOL    HW111065   1.635   1.048   0.833 -1.2210 -0.2640  0.4138
 3208SOL    HW211066   1.716   1.144   0.917  0.1508  0.1069 -1.2707
 3209SOL     OW11067   0.761   5.747   6.163 -0.4628 -0.1948  0.2316
 3209SOL    HW111068   0.672   5.733   6.129 -0.5498  0.1437  0.3110
 3209SOL    HW211069   0.755   5.720   6.255 -0.4305 -0.3640  0.1846
 3210SOL     OW11070   3.910   5.481  10.640  0.3240 -0.0624 -1.1078
 3210SOL    HW111071   3.880   5.421  10.572  0.3395  0.6001 -1.6973
 3210SOL    HW211072   3.856   5.559  10.630 -0.8531 -0.5901  0.7257
 3211SOL     OW11073   5.328   3.008   1.236 -0.2311  0.0536 -0.2858
 3211SOL    HW111074   5.377   2.949   1.294 -1.2801 -0.1490  0.4209
 3211SOL    HW211075   5.364   3.094   1.255 -0.3738 -0.0447  0.4779
 3212SOL     OW11076   3.020   6.040   7.857  0.0599 -0.3008 -0.5403
 3212SOL    HW111077   3.012   5.958   7.906  0.3304  1.0534  1.9490
 3212SOL    HW211078   3.115   6.056   7.852 -0.0113  0.2533 -0.2544
 3213SOL     OW11079   6.200   4.929   0.319 -0.1322  0.4244 -0.0109
 3213SOL    HW111080   6.272   4.866   0.320 -1.1558 -0.8397 -1.5022
 3213SOL    HW211081   6.231   4.999   0.262  0.5924  0.7902  0.7988
 3214SOL     OW11082   0.184   5.115   6.923  0.5930  0.2457 -0.2936
 3214SOL    HW111083   0.175   5.168   6.844 -1.4504 -1.2048 -1.1336
 3214SOL    HW211084   0.277   5.092   6.927  0.5065 -0.9580 -3.2223
 3215SOL     OW11085   0.241   1.210   0.311 -0.2844  0.2418 -0.0479
 3215SOL    HW111086   0.333   1.214   0.285 -0.3040 -1.1253 -0.3882
 3215SOL    HW211087   0.219   1.117   0.311 -2.1523  0.6056 -1.6506
 3216SOL     OW11088   4.587   4.851   2.562 -1.0104 -0.2194  0.0612
 3216SOL    HW111089   4.668   4.801   2.553 -0.0812  1.1600  0.4384
 3216SOL    HW211090   4.579   4.868   2.656  0.6815  3.3397 -0.2550
 3217SOL     OW11091   5.995   2.536   4.940  0.0357 -0.1173  0.1051
 3217SOL    HW111092   5.967   2.473   4.873  0.3514  1.5196 -1.6353
 3217SOL    HW211093   5.913   2.571   4.975 -0.1731 -1.9200  1.6184
 3218SOL     OW11094   5.071   0.793   3.139  0.2937 -0.0579  0.0839
 3218SOL    HW111095   5.137   0.855   3.106  0.2434  1.3711  2.4931
 3218SOL    HW211096   4.991   0.816   3.092  1.0122 -0.5467 -1.4623
 3219SOL     OW11097   2.374   0.351   9.059  0.1426  0.8197  0.4374
 3219SOL    HW111098   2.310   0.386   9.122 -0.4998  2.6162 -1.1185
 3219SOL    HW211099   2.368   0.256   9.069 -1.7720  0.9846  1.3233
 3220SOL     OW11100   7.026   0.503   1.349  0.2012  0.3606 -0.0936
 3220SOL    HW111101   7.002   0.594   1.336 -0.7841  0.0094 -0.8475
 3220SOL    HW211102   7.109   0.493   1.303  0.3247  0.8747  0.0131
 3221SOL     OW11103   6.081   1.621   4.085 -0.4318 -0.0828  0.1447
 3221SOL    HW111104   6.006   1.679   4.097 -1.9317 -1.8319 -0.2575
 3221SOL    HW211105   6.084   1.605   3.991 -0.3711 -1.0225  0.2916
 3222SOL     OW11106   0.283   4.509   8.425 -0.0327 -0.3986 -0.6662
 3222SOL    HW111107   0.301   4.599   8.451  2.7447 -1.2593  0.8244
 3222SOL    HW211108   0.211   4.482   8.481  1.4420 -0.1195  1.4716
 3223SOL     OW11109   5.935   6.499   2.076  0.4055 -0.2292  0.6814
 3223SOL    HW111110   5.938   6.475   1.983 -2.3928 -3.9951  1.3592
 3223SOL    HW211111   5.929   6.595   2.075 -0.5923 -0.1579 -3.0791
 3224SOL     OW11112   7.047   6.104   2.893 -0.0650 -0.2047 -0.0456
 3224SOL    HW111113   6.973   6.155   2.861  1.1671  1.7155  0.0315
 3224SOL    HW211114   7.048   6.119   2.987  1.0867  0.7579 -0.1892
 3225SOL     OW11115   6.800   0.979   0.964 -0.7578  0.1708 -0.2666
 3225SOL    HW111116   6.771   0.949   1.050 -1.8236  0.5406 -0.4787
 3225SOL    HW211117   6.728   1.034   0.933 -0.2584  0.2731 -1.2720
 3226SOL     OW11118   3.692   4.169   0.157  0.0286  0.0982  0.3282
 3226SOL    HW111119   3.763   4.115   0.122 -0.9639 -0.7324 -0.4814
 3226SOL    HW211120   3.700   4.253   0.111 -0.1188 -0.3473 -0.5322
 3227SOL     OW11121   4.266   0.555   8.364  0.8602  0.8047  0.4466
 3227SOL    HW111122   4.192   0.611   8.341  0.1365 -0.0005  0.7610
 3227SOL    HW211123   4.308   0.600   8.438  1.2069  1.6965 -0.2827
 3228SOL     OW11124   3.734   2.372   7.079 -0.5470 -0.3349  0.6440
 3228SOL    HW111125   3.733   2.296   7.021 -1.0011 -0.0957  0.3308
 3228SOL    HW211126   3.709   2.446   7.023  2.5252  0.5523  0.2559
 3229SOL     OW11127   1.162   7.052  10.049 -0.4569 -0.2279  0.3074
 3229SOL    HW111128   1.140   7.145  10.050  1.1395  0.1857 -0.3147
 3229SOL    HW211129   1.248   7.047  10.091 -0.8193 -1.5230  0.9475
 3230SOL     OW11130   3.856   2.189   9.770  0.3649 -0.4836 -0.0481
 3230SOL    HW111131   3.948   2.202   9.749 -0.5301  0.6920 -4.0040
 3230SOL    HW211132   3.844   2.094   9.766  0.9980 -0.5210 -1.8646
 3231SOL     OW11133   2.587   0.492   8.970  0.7034  0.3558 -0.1278
 3231SOL    HW111134   2.547   0.512   8.885 -0.2792  0.8135  0.4324
 3231SOL    HW211135   2.521   0.441   9.016  0.7847  1.0467  0.7753
 3232SOL     OW11136   0.936   1.123  10.006 -0.2544  0.2688  0.2055
 3232SOL    HW111137   0.857   1.111  10.060  0.2547  0.0368  0.9205
 3232SOL    HW211138   0.970   1.209  10.032  0.0121  0.1414  0.2851
 3233SOL     OW11139   7.700   7.855   6.275  0.2254 -0.3153  0.4220
 3233SOL    HW111140   7.781   7.808   6.253  0.7197  1.3927 -1.8399
 3233SOL    HW211141   7.639   7.787   6.302  1.0620 -2.2769 -2.1909
 3234SOL     OW11142   1.059   5.578  10.880  0.2688 -0.2091 -0.0306
 3234SOL    HW111143   1.094   5.657  10.922 -0.4494 -1.1493  2.5125
 3234SOL    HW211144   1.003   5.612  10.809 -0.3540  1.6163  1.2383
 3235SOL     OW11145   7.875   1.438  10.982  0.1856 -0.1850  0.1600
 3235SOL    HW111146   7.877   1.432  10.886  1.6282 -1.4249  0.2333
 3235SOL    HW211147   7.949   1.385  11.011 -1.1225 -1.0779  2.0435
 3236SOL     OW11148   2.600   2.240   5.834  0.1182 -0.2118 -0.3973
 3236SOL    HW111149   2.595   2.146   5.849  0.0344 -0.1450  0.0228
 3236SOL    HW211150   2.593   2.278   5.922  0.0468  0.1884 -0.5751
 3237SOL     OW11151   4.919   3.075   2.977 -0.0574 -0.4098  0.0890
 3237SOL    HW111152   4.953   3.105   3.062 -0.5679  0.0086  0.1510
 3237SOL    HW211153   4.961   2.990   2.964 -2.1495 -1.8878  2.1511
 3238SOL     OW11154   5.197   2.482   0.689  0.5122 -0.2435  0.0428
 3238SOL    HW111155   5.112   2.476   0.645 -0.6095 -0.4774  2.1089
 3238SOL    HW211156   5.227   2.392   0.697  0.3399 -0.2680  0.4285
 3239SOL     OW11157   5.772   4.315   5.697 -0.6883  0.0881  0.0142
 3239SOL    HW111158   5.811   4.297   5.611 -0.9237 -1.3253  0.1728
 3239SOL    HW211159   5.843   4.305   5.759 -0.9369 -0.9727  0.1570
 3240SOL     OW11160   2.384   0.304   3.268 -1.2479  0.0311 -0.4273
 3240SOL    HW111161   2.426   0.232   3.221  1.8755  1.2489  0.2415
 3240SOL    HW211162   2.372   0.373   3.202  0.7162  0.7780 -0.0657
 3241SOL     OW11163   6.079   5.982   4.775  0.0381  0.0763  0.1589
 3241SOL    HW111164   5.994   5.981   4.819 -0.0587 -1.3540 -0.0113
 3241SOL    HW211165   6.109   6.073   4.783 -1.7539  0.7610 -0.2903
 3242SOL     OW11166   4.679   0.775   2.209 -0.7800  0.0186  0.0069
 3242SOL    HW111167   4.743   0.838   2.177  1.9833 -1.9731  1.1724
 3242SOL    HW211168   4.660   0.720   2.133  0.0662 -0.2641 -0.0087
 3243SOL     OW11169   3.505   1.613   4.097  0.7164 -0.1134  0.9001
 3243SOL    HW111170   3.446   1.537   4.096  0.8746 -0.2314  0.4191
 3243SOL    HW211171   3.528   1.627   4.005  0.7263  0.4922  0.9949
 3244SOL     OW11172   4.215   3.151   0.488 -0.2485  0.0718 -0.0233
 3244SOL    HW111173   4.146   3.194   0.439  0.7969  1.4834 -0.3221
 3244SOL    HW211174   4.227   3.204   0.566  0.0813 -0.5039  0.3298
 3245SOL     OW11175   0.454   6.964   1.501 -0.3669  0.6578  0.7306
 3245SOL    HW111176   0.426   7.055   1.509  2.4441  1.6487  0.4593
 3245SOL    HW211177   0.550   6.968   1.501 -0.1417 -2.3208  0.7471
 3246SOL     OW11178   4.785   4.730   7.478 -0.0727 -0.2732 -0.6291
 3246SOL    HW111179   4.849   4.801   7.468  0.3892 -0.5985 -0.0786
 3246SOL    HW211180   4.806   4.691   7.563 -0.5406 -0.8496 -0.7697
 3247SOL     OW11181   6.334   6.688   9.359 -0.5637  0.5370 -0.0158
 3247SOL    HW111182   6.392   6.645   9.297 -0.9230  0.1397 -0.0781
 3247SOL    HW211183   6.246   6.675   9.324 -0.7598  0.4538  0.4874
 3248SOL     OW11184   2.117   3.006   0.908  0.6688 -0.1689  0.5506
 3248SOL    HW111185   2.109   2.911   0.910 -0.3961 -0.1048  0.2226
 3248SOL    HW211186   2.074   3.036   0.988  0.1022  0.0736  0.1657
 3249SOL     OW11187   3.377   5.106  10.406 -0.2375 -0.3803 -0.0946
 3249SOL    HW111188   3.449   5.043  10.415  2.0959  1.9613 -0.8823
 3249SOL    HW211189   3.371   5.122  10.312 -0.2435  1.0786  0.1293
 3250SOL     OW11190   5.106   1.089   8.127 -0.6795  0.1115  0.2637
 3250SOL    HW111191   5.028   1.093   8.184 -1.0102  1.3407 -0.2454
 3250SOL    HW211192   5.076   1.041   8.050 -0.5603 -0.5274  0.6048
 3251SOL     OW11193   3.913   7.189   4.724  0.1478 -0.3195  0.1763
 3251SOL    HW111194   3.845   7.130   4.757 -0.4250  0.7645  0.9913
 3251SOL    HW211195   3.955   7.139   4.653 -1.1624 -1.2049 -0.0291
 3252SOL     OW11196   4.826   5.724   0.142  0.0492  0.4025 -0.0568
 3252SOL    HW111197   4.912   5.683   0.136 -0.4247 -0.5453 -0.7872
 3252SOL    HW211198   4.791   5.694   0.227 -0.1997 -0.5679 -0.4818
 3253SOL     OW11199   1.947   7.729   3.459 -0.0639 -0.2561  0.0768
 3253SOL    HW111200   1.923   7.801   3.518 -0.2246 -0.4348  0.2350
 3253SOL    HW211201   2.024   7.689   3.499  0.1669 -0.0226 -0.1383
 3254SOL     OW11202   2.751   3.561  11.462 -0.2569  0.2753  0.2028
 3254SOL    HW111203   2.765   3.467  11.471 -0.1786  0.1513 -0.9859
 3254SOL    HW211204   2.774   3.579  11.371 -1.0642  1.3058  0.1970
 3255SOL     OW11205   6.050   4.973   7.951 -0.1043 -0.0692  1.3079
 3255SOL    HW111206   6.068   4.965   8.045 -1.1589 -0.0114  1.5195
 3255SOL    HW211207   5.989   4.902   7.932  0.9550 -0.7855  0.4226
 3256SOL     OW11208   6.304   7.105   8.853 -0.3399 -0.2742 -0.4761
 3256SOL    HW111209   6.379   7.051   8.878 -0.0899 -0.1873 -1.0354
 3256SOL    HW211210   6.268   7.063   8.775 -0.5081  0.0265 -0.5619
 3257SOL     OW11211   0.210   7.243   2.170  0.4301  0.0434 -0.0767
 3257SOL    HW111212   0.304   7.231   2.185 -0.0607 -2.1351  1.9828
 3257SOL    HW211213   0.176   7.154   2.161 -1.6832  0.6304  1.3583
 3258SOL     OW11214   4.831   0.263   9.062 -0.6192 -0.3762 -0.3685
 3258SOL    HW111215   4.800   0.278   8.973  0.9965  0.3861 -0.8418
 3258SOL    HW211216   4.815   0.346   9.107  3.8906  1.5078 -1.6547
 3259SOL     OW11217   5.266   1.643  11.577 -0.1512 -1.1178  0.0376
 3259SOL    HW111218   5.192   1.590  11.549  0.0130 -2.3844  1.8327
 3259SOL    HW211219   5.343   1.588  11.561  0.0773 -1.2080  1.3310
 3260SOL     OW11220   6.208   6.538   2.179 -0.3736  0.2625  0.6280
 3260SOL    HW111221   6.115   6.516   2.167 -0.6963  1.9269 -0.1819
 3260SOL    HW211222   6.245   6.533   2.091 -0.2217  1.7683  0.5836
 3261SOL     OW11223   0.118   1.259  11.008  0.1085  0.2650  0.3582
 3261SOL    HW111224   0.120   1.174  11.051  1.8213  0.9530  1.7517
 3261SOL    HW211225   0.180   1.313  11.057 -0.8134  2.2905 -0.5608
 3262SOL     OW11226   1.731   3.861  12.243 -0.3586 -0.1480 -0.0387
 3262SOL    HW111227   1.644   3.822  12.254 -0.7607  0.5812 -0.5241
 3262SOL    HW211228   1.791   3.787  12.244 -0.9774 -0.6580  0.3832
 3263SOL     OW11229   1.801   5.849   4.532 -0.0287  0.1022 -0.2389
 3263SOL    HW111230   1.778   5.782   4.467  0.0721  0.9528 -1.1789
 3263SOL    HW211231   1.728   5.848   4.594 -0.2431 -0.5597 -0.4881
 3264SOL     OW11232   3.809   4.314  10.730  0.7862 -0.3986  0.2066
 3264SOL    HW111233   3.839   4.370  10.802 -1.0700 -0.1604  0.8581
 3264SOL    HW211234   3.886   4.261  10.706  1.3713 -0.7491  2.6135
 3265SOL     OW11235   1.998   7.377   5.868 -0.2680  0.7395 -0.2832
 3265SOL    HW111236   1.903   7.385   5.875 -0.1584  1.6583  0.3622
 3265SOL    HW211237   2.014   7.354   5.777 -1.2116 -1.3614  0.0125
 3266SOL     OW11238   6.232   6.619   3.646  0.5040 -0.4927  0.2821
 3266SOL    HW111239   6.217   6.582   3.733 -0.2616 -0.7292  0.0593
 3266SOL    HW211240   6.304   6.681   3.658  0.1288 -0.2083  1.1717
 3267SOL     OW11241   6.028   6.682   7.129  0.2284 -0.2545  0.1904
 3267SOL    HW111242   5.936   6.705   7.130  0.3469  0.2475 -0.2878
 3267SOL    HW211243   6.033   6.601   7.180 -0.3756  0.0782  0.7905
 3268SOL     OW11244   6.624   1.553   3.830 -0.2469 -0.1614  0.1514
 3268SOL    HW111245   6.550   1.528   3.885  0.8458 -1.2128  1.1872
 3268SOL    HW211246   6.702   1.527   3.879  0.8005 -0.6064 -1.6271
 3269SOL     OW11247   2.046   5.913   6.008 -0.5135  0.3979  0.8817
 3269SOL    HW111248   1.968   5.886   5.959 -0.6193  0.9269  0.7567
 3269SOL    HW211249   2.101   5.835   6.009 -1.0241  0.0292  0.9317
 3270SOL     OW11250   4.152   5.343  11.774  0.0061 -0.4912  0.1057
 3270SOL    HW111251   4.142   5.394  11.694 -1.5023  0.0946  0.6358
 3270SOL    HW211252   4.134   5.253  11.748 -2.0107 -0.1091  0.0345
 3271SOL     OW11253   1.137   7.720   4.510 -0.7466 -0.1978 -0.2326
 3271SOL    HW111254   1.214   7.716   4.566 -1.8968 -1.2885  1.3738
 3271SOL    HW211255   1.147   7.646   4.450 -0.6998 -0.5770  0.2323
 3272SOL     OW11256   5.971   7.084   2.199 -0.1177 -0.1668 -0.5621
 3272SOL    HW111257   5.898   7.103   2.141  0.4850 -0.3621 -1.4035
 3272SOL    HW211258   5.976   6.988   2.201 -1.4704 -0.2569  1.5367
 3273SOL     OW11259   5.248   3.788  10.982 -0.0845  0.0077  0.1069
 3273SOL    HW111260   5.232   3.794  11.076 -1.7972 -1.4106 -0.0428
 3273SOL    HW211261   5.267   3.695  10.967  2.5149  0.5748 -0.6697
 3274SOL     OW11262   6.189   5.749  11.732 -0.5195 -0.0090  0.0160
 3274SOL    HW111263   6.170   5.790  11.648 -1.0681 -0.4156 -0.0608
 3274SOL    HW211264   6.113   5.768  11.787 -0.9371 -1.2088 -0.1300
 3275SOL     OW11265   7.827   3.594   0.759 -0.2103  0.1980 -0.5952
 3275SOL    HW111266   7.837   3.591   0.664 -0.3724  0.9911 -0.6437
 3275SOL    HW211267   7.869   3.675   0.785 -1.8142  0.9508 -0.2225
 3276SOL     OW11268   5.264   6.223   8.009  0.0544  0.7133  0.0389
 3276SOL    HW111269   5.177   6.264   8.009 -0.0350  0.5533  1.4998
 3276SOL    HW211270   5.259   6.156   7.941 -1.5974 -0.5554  1.3167
 3277SOL     OW11271   5.351   3.341   4.605 -0.5733  0.2411  0.0636
 3277SOL    HW111272   5.413   3.281   4.646  0.3517  0.5482 -0.8457
 3277SOL    HW211273   5.317   3.292   4.529 -1.1855  0.2094  0.3497
 3278SOL     OW11274   7.253   3.001   5.382 -0.4250 -0.0615 -0.3465
 3278SOL    HW111275   7.347   3.015   5.391 -0.5065  1.3799 -1.3513
 3278SOL    HW211276   7.213   3.077   5.423 -1.2889 -1.8134  2.2852
 3279SOL     OW11277   6.249   4.426   5.800  0.0861 -0.4413 -0.3590
 3279SOL    HW111278   6.305   4.501   5.782  1.1065 -1.5087 -1.9685
 3279SOL    HW211279   6.308   4.351   5.800 -0.4975 -1.1250  3.6208
 3280SOL     OW11280   4.384   1.955   8.297 -0.1400 -0.1939 -0.4717
 3280SOL    HW111281   4.372   1.895   8.370  0.2078  1.0917  0.6753
 3280SOL    HW211282   4.432   2.029   8.334  3.0120 -0.9121 -2.7063
 3281SOL     OW11283   0.007   2.928   0.369 -0.2074  0.1464  0.1184
 3281SOL    HW111284   0.046   2.997   0.315  1.9187  1.1952  2.7774
 3281SOL    HW211285  -0.066   2.971   0.413 -0.6650 -0.1402 -0.3463
 3282SOL     OW11286   3.988   6.107   3.259 -0.4937  0.6914 -0.2413
 3282SOL    HW111287   4.066   6.057   3.232 -0.3671  1.8969 -2.2938
 3282SOL    HW211288   3.980   6.089   3.352  1.4715 -0.5198 -0.2376
 3283SOL     OW11289   1.197   0.633   9.015  0.3126  0.5632 -0.0362
 3283SOL    HW111290   1.270   0.695   9.009  1.6700 -0.9184  0.5856
 3283SOL    HW211291   1.119   0.689   9.023  1.5062  2.1772  0.9240
 3284SOL     OW11292   1.628   7.357   0.043 -0.0167  0.3191 -0.3716
 3284SOL    HW111293   1.655   7.265   0.036  0.4516  0.4760 -0.7487
 3284SOL    HW211294   1.551   7.355   0.100 -1.0603 -0.5165 -1.7284
 3285SOL     OW11295   7.560   0.709   3.254  0.3452 -0.1216 -0.0413
 3285SOL    HW111296   7.641   0.690   3.208 -0.5918  2.2932 -3.0591
 3285SOL    HW211297   7.548   0.804   3.244 -2.9071 -0.3965  0.0430
 3286SOL     OW11298   4.813   3.338  10.378  0.3747  0.0736  0.4424
 3286SOL    HW111299   4.783   3.303  10.294 -1.8770 -0.5861  1.4464
 3286SOL    HW211300   4.868   3.268  10.413 -1.0604 -0.9620  0.7620
 3287SOL     OW11301   4.317   1.987   1.954  0.1099  0.3168  0.1152
 3287SOL    HW111302   4.277   1.948   1.876  0.7662 -0.7067  0.2674
 3287SOL    HW211303   4.270   2.070   1.966 -0.6624  0.0352 -0.7911
 3288SOL     OW11304   3.230   1.192   0.821 -0.5380  0.3828  0.7222
 3288SOL    HW111305   3.175   1.129   0.867  1.4199 -1.2800  0.9014
 3288SOL    HW211306   3.223   1.167   0.729 -0.4348  0.4574  0.6938
 3289SOL     OW11307   6.823   6.467   1.834  0.1489 -0.0076  0.3336
 3289SOL    HW111308   6.829   6.407   1.909  1.3999 -1.5015 -0.8871
 3289SOL    HW211309   6.752   6.431   1.781  0.9302 -0.4607 -0.4220
 3290SOL     OW11310   3.527   0.870   2.895  0.1422  0.2417 -0.4297
 3290SOL    HW111311   3.505   0.818   2.972  0.5589  0.2905 -0.2738
 3290SOL    HW211312   3.462   0.941   2.894  0.2994  0.3957  0.0320
 3291SOL     OW11313   2.353   4.426   0.621  0.0802 -0.1560  0.2266
 3291SOL    HW111314   2.382   4.374   0.696 -0.6844 -0.5644  0.2500
 3291SOL    HW211315   2.360   4.517   0.651 -0.4875 -0.3242  0.9019
 3292SOL     OW11316   4.848   5.058   4.127  0.1192 -0.3733 -0.0098
 3292SOL    HW111317   4.781   4.993   4.151 -1.2398  0.1458 -2.1176
 3292SOL    HW211318   4.913   5.008   4.078  0.4892 -0.5967  0.6934
 3293SOL     OW11319   2.627   3.879   2.971 -0.0022  0.1627 -0.2788
 3293SOL    HW111320   2.532   3.882   2.983  0.0232  0.4154 -0.1301
 3293SOL    HW211321   2.660   3.952   3.023  0.1582  0.9489 -1.4474
 3294SOL     OW11322   4.211   7.751   0.363  0.3898  0.1538 -0.0151
 3294SOL    HW111323   4.137   7.728   0.420  0.5974 -1.4667 -0.3613
 3294SOL    HW211324   4.266   7.673   0.361  1.1228  0.6646 -1.3076
 3295SOL     OW11325   0.272   5.105   4.905  0.0330  0.1352 -0.1927
 3295SOL    HW111326   0.360   5.087   4.936  0.6002  1.7045 -0.7876
 3295SOL    HW211327   0.238   5.171   4.966  0.4450  1.8161 -1.6832
 3296SOL     OW11328   6.613   5.662   2.395  0.6692  0.3555 -0.7536
 3296SOL    HW111329   6.558   5.725   2.349  0.0956 -0.2586 -0.9211
 3296SOL    HW211330   6.616   5.693   2.485 -1.1182 -0.3511 -0.4092
 3297SOL     OW11331   7.514   7.125   5.370  0.2135  0.0770  0.2945
 3297SOL    HW111332   7.512   7.045   5.317  1.3510 -0.2052  0.6613
 3297SOL    HW211333   7.429   7.125   5.415  0.4496 -1.2776  0.7997
 3298SOL     OW11334   1.255   6.627   9.957  0.2991 -0.3932 -0.4318
 3298SOL    HW111335   1.231   6.713   9.924  0.0051 -0.2244  0.2031
 3298SOL    HW211336   1.274   6.641  10.050 -2.1175 -1.4193  0.2910
 3299SOL     OW11337   1.358   6.339   2.407  0.2473 -0.5042 -0.0058
 3299SOL    HW111338   1.404   6.259   2.433  0.5006 -0.0375  1.0607
 3299SOL    HW211339   1.420   6.409   2.428  0.0876 -0.0349 -1.0627
 3300SOL     OW11340   4.519   4.278  10.395  0.0287  0.3050  0.5199
 3300SOL    HW111341   4.497   4.339  10.325 -3.2997 -0.9440  0.2882
 3300SOL    HW211342   4.606   4.246  10.373 -0.8132  0.0662 -2.9806
 3301SOL     OW11343   5.349   0.611   2.302  0.0734 -0.1282  0.1712
 3301SOL    HW111344   5.284   0.624   2.371  0.7708 -0.3018  0.8823
 3301SOL    HW211345   5.319   0.667   2.230 -0.0487  0.9906  1.0544
 3302SOL     OW11346   2.977   5.301   9.770 -0.1226  0.2388 -0.1361
 3302SOL    HW111347   2.925   5.287   9.691 -0.3588  0.3593 -0.0053
 3302SOL    HW211348   2.911   5.307   9.840  0.1033 -0.2475  0.1209
 3303SOL     OW11349   7.098   5.006   3.134 -0.4877 -0.1621 -0.2017
 3303SOL    HW111350   7.008   4.984   3.111 -0.0479 -1.4459 -0.7651
 3303SOL    HW211351   7.096   5.021   3.229 -0.9635 -2.0213  0.1099
 3304SOL     OW11352   6.994   4.741   1.696 -0.0161  0.3849  0.3796
 3304SOL    HW111353   6.934   4.813   1.677 -2.3162 -1.5456 -0.0005
 3304SOL    HW211354   7.063   4.750   1.631  0.2369  2.6994  0.8704
 3305SOL     OW11355   4.168   5.977   4.523  0.2267  0.2128 -0.3084
 3305SOL    HW111356   4.262   5.992   4.512  0.0351  0.3500 -1.9881
 3305SOL    HW211357   4.161   5.884   4.544  0.7795  0.3980  0.7837
 3306SOL     OW11358   0.139   0.386   7.990 -0.0687  0.0529  0.2189
 3306SOL    HW111359   0.201   0.393   7.918 -0.3652 -0.1152 -0.0508
 3306SOL    HW211360   0.094   0.471   7.991  1.8081  1.1294  1.9287
 3307SOL     OW11361   7.004   1.802   2.538 -0.1524 -0.0865  0.5204
 3307SOL    HW111362   6.920   1.760   2.557  0.2498 -0.7233  0.9456
 3307SOL    HW211363   7.064   1.763   2.601  0.7244 -0.5338 -0.5702
 3308SOL     OW11364   1.308   1.795   3.033 -0.3538 -0.1452  0.4916
 3308SOL    HW111365   1.349   1.709   3.039  0.8341  0.3307 -0.4866
 3308SOL    HW211366   1.237   1.784   2.969  1.9975  0.3520 -2.3937
 3309SOL     OW11367   7.480   6.284  11.553  0.1997 -0.0171  0.2761
 3309SOL    HW111368   7.506   6.274  11.461  0.4824 -0.8239  0.4329
 3309SOL    HW211369   7.554   6.248  11.603  1.2178  2.7379  0.9438
 3310SOL     OW11370   7.107   1.037   3.226  0.1942 -0.4906 -0.1633
 3310SOL    HW111371   7.180   1.063   3.282 -0.5418 -1.7105  1.4682
 3310SOL    HW211372   7.121   0.944   3.210 -1.6735 -1.1271  1.3995
 3311SOL     OW11373   3.092   7.716   2.559 -0.0929  0.3141 -0.2745
 3311SOL    HW111374   3.184   7.709   2.534  0.2155  0.2269  0.8692
 3311SOL    HW211375   3.050   7.639   2.519  1.0576 -1.7981  2.3269
 3312SOL     OW11376   2.670   0.583   3.340 -0.6137  0.0018 -0.0260
 3312SOL    HW111377   2.750   0.557   3.386 -0.0768 -0.1321 -1.0155
 3312SOL    HW211378   2.654   0.673   3.369 -1.0727 -0.5258  1.4704
 3313SOL     OW11379   5.611   3.351  11.982  0.2290  0.1994  0.4955
 3313SOL    HW111380   5.578   3.424  11.929  0.3817  0.9766  1.4417
 3313SOL    HW211381   5.554   3.351  12.059  1.4952  0.6183  1.4552
 3314SOL     OW11382   5.984   4.745   2.879 -0.3129 -0.1620 -0.0178
 3314SOL    HW111383   6.057   4.786   2.926  0.5823  0.9902 -2.2491
 3314SOL    HW211384   5.907   4.767   2.931  0.6081  0.9841  0.9315
 3315SOL     OW11385   0.473   0.883   3.933  0.6591  0.4317 -0.7384
 3315SOL    HW111386   0.567   0.869   3.916  0.9926 -1.0559  1.8037
 3315SOL    HW211387   0.429   0.811   3.888  0.9097  0.1790 -0.5828
 3316SOL     OW11388   3.407   6.816   9.210  0.4710  0.3595 -0.3141
 3316SOL    HW111389   3.425   6.909   9.199  0.6979  0.2194 -1.1737
 3316SOL    HW211390   3.459   6.773   9.142  0.7118 -0.4321  0.3503
 3317SOL     OW11391   6.029   5.812   3.597  0.1520  0.5244  0.1545
 3317SOL    HW111392   6.107   5.783   3.644 -0.8721  0.5518  1.9647
 3317SOL    HW211393   6.059   5.889   3.548  1.4766 -0.0272  0.0432
 3318SOL     OW11394   2.959   5.165   7.645  0.0762 -0.0393 -0.3854
 3318SOL    HW111395   2.942   5.216   7.566 -0.4202 -1.1153 -0.9971
 3318SOL    HW211396   2.872   5.148   7.682  0.2492 -0.2081 -0.0509
 3319SOL     OW11397   7.647   0.261  11.348  0.0877 -0.2112  0.2558
 3319SOL    HW111398   7.615   0.303  11.269  1.4352  0.5004  0.0507
 3319SOL    HW211399   7.678   0.334  11.403 -1.4046 -0.6281  1.7463
 3320SOL     OW11400   4.453   3.088   0.418 -0.4473  0.2155  0.6016
 3320SOL    HW111401   4.496   3.074   0.503 -1.2017  0.8306  1.0979
 3320SOL    HW211402   4.361   3.101   0.440 -0.8371 -0.6835 -0.4139
 3321SOL     OW11403   4.546   7.304   0.322 -0.0785  0.1152  0.4404
 3321SOL    HW111404   4.625   7.281   0.370 -1.9127 -0.4229  3.4387
 3321SOL    HW211405   4.529   7.229   0.265  0.9086 -0.2861  0.6596
 3322SOL     OW11406   3.816   2.277   8.186  1.0424 -0.4530  0.7284
 3322SOL    HW111407   3.853   2.198   8.225 -1.9651 -2.5928 -0.2998
 3322SOL    HW211408   3.795   2.333   8.260  2.0021 -1.2040  1.5985
 3323SOL     OW11409   7.894   3.088   5.860  0.5424  0.3409 -0.4055
 3323SOL    HW111410   7.830   3.049   5.920 -1.3887  0.1461 -2.4384
 3323SOL    HW211411   7.942   3.151   5.914 -0.0640 -0.8635  1.6548
 3324SOL     OW11412   6.462   3.729   6.919 -0.6234  0.4287  0.5897
 3324SOL    HW111413   6.434   3.717   6.828 -0.8524  0.1944  0.6891
 3324SOL    HW211414   6.432   3.650   6.964  0.4857  0.0143  0.6387
 3325SOL     OW11415   1.600   0.471   7.716  0.4858  0.3390  0.3762
 3325SOL    HW111416   1.552   0.388   7.716 -0.2892  0.7750  0.2674
 3325SOL    HW211417   1.605   0.496   7.623  4.2846 -1.5596 -0.0916
 3326SOL     OW11418   4.285   3.429   8.362  0.7017  0.3031 -0.3814
 3326SOL    HW111419   4.209   3.370   8.360  1.3288 -0.5824 -3.4229
 3326SOL    HW211420   4.313   3.428   8.453  0.8991 -4.4925 -0.1986
 3327SOL     OW11421   4.650   6.397   5.950  0.5390  0.1794 -0.0436
 3327SOL    HW111422   4.637   6.333   6.019  0.2986  0.2042 -0.0656
 3327SOL    HW211423   4.703   6.352   5.884  1.1779  0.3078  0.3735
 3328SOL     OW11424   6.874   1.900  10.102  0.1578 -0.1734  0.6637
 3328SOL    HW111425   6.909   1.851  10.177 -2.4013  0.7346  2.5865
 3328SOL    HW211426   6.941   1.965  10.082  2.1582 -2.2436  0.2122
 3329SOL     OW11427   6.270   7.890   3.857 -0.0691  0.0672 -0.3389
 3329SOL    HW111428   6.212   7.823   3.890 -0.0806  0.1198 -0.2523
 3329SOL    HW211429   6.309   7.930   3.935  0.0134  0.0937 -0.3921
 3330SOL     OW11430   5.147   1.937   8.946  0.3178  0.0390  0.2362
 3330SOL    HW111431   5.210   1.876   8.907  0.8767  0.0668  1.0806
 3330SOL    HW211432   5.109   1.888   9.018  0.0998  0.3776  0.3506
 3331SOL     OW11433   1.854   0.612   3.073  0.3568  0.3363  0.5523
 3331SOL    HW111434   1.852   0.695   3.121  2.5074  0.7794 -0.0251
 3331SOL    HW211435   1.841   0.636   2.982  0.2071 -0.0508  0.4707
 3332SOL     OW11436   3.468   5.043   8.447  0.0065 -0.2820 -0.4038
 3332SOL    HW111437   3.390   5.025   8.395 -0.2697 -0.0306 -0.0828
 3332SOL    HW211438   3.460   5.135   8.472  0.6605 -0.1193 -0.7879
 3333SOL     OW11439   5.519   6.713   7.360  0.1695  0.1309  0.3770
 3333SOL    HW111440   5.506   6.624   7.329  0.7393  0.8921 -2.3164
 3333SOL    HW211441   5.518   6.706   7.456 -0.8462 -2.5624  0.2449
 3334SOL     OW11442   5.607   6.152   3.375 -0.0893  0.0828  0.3514
 3334SOL    HW111443   5.539   6.216   3.352  0.1310 -0.4929 -2.1661
 3334SOL    HW211444   5.685   6.205   3.393  0.0540  0.5807 -1.5780
 3335SOL     OW11445   3.958   2.188   1.814 -0.7635  0.2195 -0.0032
 3335SOL    HW111446   4.023   2.189   1.884 -0.5929 -0.0243 -0.1575
 3335SOL    HW211447   3.893   2.254   1.841  0.2466  1.4671 -0.5332
 3336SOL     OW11448   3.204   1.462   9.368 -0.4007  0.2845  0.2442
 3336SOL    HW111449   3.230   1.546   9.330  0.5049 -0.3231 -0.5325
 3336SOL    HW211450   3.131   1.433   9.313  1.4891 -1.0268 -1.7473
 3337SOL     OW11451   6.114   2.457  10.056  0.0417  0.1476  0.0417
 3337SOL    HW111452   6.022   2.474  10.071 -0.6013 -1.1399 -2.0579
 3337SOL    HW211453   6.128   2.476   9.964  1.8258  0.0893  0.2644
 3338SOL     OW11454   1.678   0.660   9.719  0.1785  0.2467  0.6585
 3338SOL    HW111455   1.769   0.669   9.745  0.5886 -2.1095  0.2418
 3338SOL    HW211456   1.635   0.621   9.795 -0.1485 -0.0884  0.3024
 3339SOL     OW11457   6.827   0.487   5.090  0.1345 -0.6720  0.0712
 3339SOL    HW111458   6.827   0.392   5.105  0.1115 -1.0872 -2.2701
 3339SOL    HW211459   6.793   0.524   5.172 -3.7618 -2.9378 -0.3025
 3340SOL     OW11460   3.822   2.721   2.674  0.2592  0.9791 -0.5769
 3340SOL    HW111461   3.848   2.741   2.585  2.1583 -1.2811 -0.6355
 3340SOL    HW211462   3.789   2.803   2.709  1.1253  2.3506 -2.7817
 3341SOL     OW11463   4.141   3.939  10.154 -0.1219  0.2777 -0.1661
 3341SOL    HW111464   4.120   3.900  10.069 -1.9914 -0.5704  0.6209
 3341SOL    HW211465   4.198   4.013  10.133  4.2830 -3.0852 -1.7415
 3342SOL     OW11466   5.954   4.837   0.357 -0.0807 -0.0515 -0.2795
 3342SOL    HW111467   6.039   4.875   0.378 -0.4410  0.1407  0.8624
 3342SOL    HW211468   5.916   4.814   0.441 -0.2293 -2.2262 -0.8562
 3343SOL     OW11469   0.099   1.700   2.699 -0.1350 -0.3384 -0.1255
 3343SOL    HW111470   0.137   1.759   2.764 -0.3719 -0.9118  0.5337
 3343SOL    HW211471   0.073   1.623   2.748 -2.0007 -0.0455 -0.5843
 3344SOL     OW11472   7.860   0.764   6.598 -0.4623  0.0746 -0.2878
 3344SOL    HW111473   7.813   0.681   6.592 -0.0970 -0.2260  0.7372
 3344SOL    HW211474   7.953   0.739   6.603 -0.3903  0.4984  0.6812
 3345SOL     OW11475   3.656   3.334   4.769 -0.3190  0.0944  0.0150
 3345SOL    HW111476   3.603   3.290   4.703 -2.0045 -1.1919  2.1030
 3345SOL    HW211477   3.677   3.266   4.833 -1.8281  1.9135  2.6733
 3346SOL     OW11478   4.745   5.526   2.212  1.0855  0.1292 -0.4497
 3346SOL    HW111479   4.755   5.482   2.127  0.3973  0.0705 -0.5084
 3346SOL    HW211480   4.819   5.586   2.217  0.2522  1.3527 -1.8468
 3347SOL     OW11481   2.363   0.563   8.409  0.2663  0.4474  0.2445
 3347SOL    HW111482   2.271   0.548   8.391  0.5013  0.7879 -1.4082
 3347SOL    HW211483   2.364   0.623   8.484 -0.8180 -0.2226  0.8158
 3348SOL     OW11484   6.228   4.254   2.323 -0.4629 -0.2644  0.0488
 3348SOL    HW111485   6.156   4.296   2.371 -1.0695 -3.0896  1.8592
 3348SOL    HW211486   6.188   4.226   2.240 -0.6622  0.6366 -0.1699
 3349SOL     OW11487   5.456   4.424   3.073  0.0689  0.8573  0.6399
 3349SOL    HW111488   5.520   4.456   3.011  1.8917  0.5637  2.2906
 3349SOL    HW211489   5.477   4.468   3.155 -0.2680 -1.0675  1.8157
 3350SOL     OW11490   3.210   0.854   8.355  0.2575  0.3975 -0.0869
 3350SOL    HW111491   3.209   0.903   8.272 -2.5820 -0.4467 -0.6530
 3350SOL    HW211492   3.181   0.766   8.331  1.3417 -0.4483  1.5325
 3351SOL     OW11493   6.159   3.408   0.445 -0.2511  0.2201  0.5781
 3351SOL    HW111494   6.193   3.325   0.478 -1.7919 -0.4058  0.6872
 3351SOL    HW211495   6.112   3.446   0.519 -2.1411 -0.2980 -0.2952
 3352SOL     OW11496   2.681   1.212   6.039  0.2110  0.1137 -0.1504
 3352SOL    HW111497   2.729   1.156   6.100 -1.0870  0.8330  1.5960
 3352SOL    HW211498   2.746   1.276   6.011  0.3678  1.0383  2.1311
 3353SOL     OW11499   7.622   2.403   6.838 -0.6566 -0.3095  0.1377
 3353SOL    HW111500   7.655   2.469   6.776  1.9455 -1.1038  0.5532
 3353SOL    HW211501   7.681   2.329   6.827 -3.4807 -2.6558 -0.2781
 3354SOL     OW11502   0.688   6.976   6.810 -0.0196 -0.8425 -0.4197
 3354SOL    HW111503   0.649   6.901   6.764 -2.8877  0.7752 -0.8498
 3354SOL    HW211504   0.629   7.049   6.791  2.0512  1.3048  0.9070
 3355SOL     OW11505   6.416   4.472  10.607 -0.6142  0.3462 -0.2241
 3355SOL    HW111506   6.450   4.444  10.522 -2.3369 -1.6554 -0.3224
 3355SOL    HW211507   6.401   4.391  10.655 -0.0911  1.4188  1.8670
 3356SOL     OW11508   2.132   1.719   3.560 -0.0704  0.2125 -1.0215
 3356SOL    HW111509   2.146   1.745   3.469  0.6241  0.1353 -0.9425
 3356SOL    HW211510   2.045   1.679   3.561  0.2606 -0.5560 -1.8147
 3357SOL     OW11511   3.781   5.466   6.581 -0.1787 -0.5026 -0.3392
 3357SOL    HW111512   3.735   5.511   6.510  0.4280  1.8993  0.6940
 3357SOL    HW211513   3.813   5.385   6.541 -0.6017  0.3519 -2.5621
 3358SOL     OW11514   6.827   4.345   0.105  0.2377 -0.1445  0.0626
 3358SOL    HW111515   6.740   4.354   0.066 -0.0927  2.5775  1.2377
 3358SOL    HW211516   6.888   4.358   0.033 -0.3093 -0.4917 -0.4729
 3359SOL     OW11517   1.110   5.527   3.233  0.2719 -0.2673  0.0580
 3359SOL    HW111518   1.076   5.491   3.151 -1.2730 -0.4792  0.7727
 3359SOL    HW211519   1.107   5.454   3.295  0.9343  0.0278  0.4531
 3360SOL     OW11520   3.431   1.195   7.099 -0.4516  0.0532  0.0741
 3360SOL    HW111521   3.374   1.118   7.097 -0.5361  0.1296 -0.3907
 3360SOL    HW211522   3.519   1.158   7.100 -0.4644 -0.0493 -1.0904
 3361SOL     OW11523   0.238   6.043   2.304 -0.2306 -0.4797  0.1654
 3361SOL    HW111524   0.144   6.060   2.297 -0.2335 -0.4784  0.2092
 3361SOL    HW211525   0.271   6.058   2.215 -0.2816 -0.5446  0.1352
 3362SOL     OW11526   6.018   6.822   4.418 -0.0692  0.9220 -0.3703
 3362SOL    HW111527   6.079   6.890   4.444 -1.1291  1.6413  0.3200
 3362SOL    HW211528   6.008   6.832   4.324  1.4327  0.3108 -0.6117
 3363SOL     OW11529   2.222   2.161   3.509 -0.0080  0.2729 -0.2962
 3363SOL    HW111530   2.240   2.123   3.595 -0.5851 -2.7382 -1.3893
 3363SOL    HW211531   2.288   2.122   3.452 -1.7273 -0.5272 -1.8227
 3364SOL     OW11532   4.211   4.393   6.615  0.5281  0.2891 -0.5657
 3364SOL    HW111533   4.282   4.366   6.557 -0.1793 -1.0054 -0.8504
 3364SOL    HW211534   4.255   4.422   6.695  1.3517 -3.2859  0.4365
 3365SOL     OW11535   1.682   2.910   1.112  0.0173 -0.1141 -0.2156
 3365SOL    HW111536   1.693   3.005   1.119 -0.7685 -0.0177 -0.1224
 3365SOL    HW211537   1.596   2.894   1.151  0.5546 -0.9816  0.6648
 3366SOL     OW11538   7.434   3.321   8.016 -0.5741 -0.3994  0.1901
 3366SOL    HW111539   7.452   3.283   7.930 -0.4954 -0.2297  0.1320
 3366SOL    HW211540   7.520   3.326   8.058 -0.5491 -0.0539  0.1018
 3367SOL     OW11541   6.817   3.549  12.162  0.3812  0.2206 -0.3628
 3367SOL    HW111542   6.786   3.573  12.075  0.8393  0.5647 -0.4370
 3367SOL    HW211543   6.743   3.566  12.220 -0.4166 -1.4263 -0.8798
 3368SOL     OW11544   5.097   1.465   2.956  0.0073  0.2003 -0.3656
 3368SOL    HW111545   5.155   1.510   3.017  0.9949 -1.5992  0.0941
 3368SOL    HW211546   5.147   1.459   2.874  0.8001 -1.8822  0.2048
 3369SOL     OW11547   1.607   1.790   3.320 -0.1503  0.3469  0.2874
 3369SOL    HW111548   1.558   1.712   3.346  0.8650 -0.4633 -0.1586
 3369SOL    HW211549   1.632   1.773   3.229  1.3695  0.4936  0.6414
 3370SOL     OW11550   6.601   0.934   1.870 -0.4572 -0.0549  0.3431
 3370SOL    HW111551   6.591   1.024   1.902 -0.5130 -0.0103  0.2015
 3370SOL    HW211552   6.683   0.936   1.820  0.2600 -0.4083  1.4637
 3371SOL     OW11553   7.394   6.777  10.794 -0.2304  0.0592  0.7229
 3371SOL    HW111554   7.340   6.848  10.829 -0.3625 -0.1118  0.8687
 3371SOL    HW211555   7.442   6.744  10.869 -1.4050 -1.0977  1.0070
 3372SOL     OW11556   1.152   0.745   1.267  0.2188  0.4903 -0.6178
 3372SOL    HW111557   1.241   0.725   1.239  0.3092 -0.6228  0.3804
 3372SOL    HW211558   1.161   0.784   1.353 -0.2965 -0.5472 -0.0744
 3373SOL     OW11559   7.098   2.082   2.250  0.4240  0.0779  0.2729
 3373SOL    HW111560   7.005   2.061   2.236  0.4027  0.4187 -0.0973
 3373SOL    HW211561   7.106   2.090   2.345  0.2379 -0.6973  0.3658
 3374SOL     OW11562   0.285   7.655   6.228  0.5666 -0.0124  0.4480
 3374SOL    HW111563   0.208   7.689   6.183 -0.9181 -0.2211  2.6848
 3374SOL    HW211564   0.277   7.560   6.221 -0.5002 -0.1017  2.3394
 3375SOL     OW11565   1.659   1.993   6.307  0.4119 -0.2641  0.1991
 3375SOL    HW111566   1.693   1.909   6.276  2.8636  1.1441 -1.3033
 3375SOL    HW211567   1.569   1.997   6.275  1.2135 -1.0819 -2.3808
 3376SOL     OW11568   0.691   7.825  10.672  0.3379  0.0452 -0.3988
 3376SOL    HW111569   0.731   7.760  10.730  2.3151  1.5036 -0.0214
 3376SOL    HW211570   0.647   7.886  10.732 -0.6355 -0.3612 -0.6839
 3377SOL     OW11571   6.616   3.003   1.189  0.5873  0.2590  0.2774
 3377SOL    HW111572   6.633   3.015   1.096  1.0862  0.1184  0.3485
 3377SOL    HW211573   6.671   3.070   1.232  2.9276 -1.7500  0.6500
 3378SOL     OW11574   4.623   1.040   3.350  0.4021 -0.1528 -0.7375
 3378SOL    HW111575   4.693   1.106   3.358  0.8601 -0.8131  1.1588
 3378SOL    HW211576   4.634   0.984   3.426 -2.1716 -0.3308 -0.4215
 3379SOL     OW11577   0.234   3.958   6.252 -0.2544 -0.3266 -0.8520
 3379SOL    HW111578   0.199   3.874   6.281  0.5412 -0.3240  0.1478
 3379SOL    HW211579   0.227   4.016   6.328  1.0894 -0.0803 -0.8912
 3380SOL     OW11580   1.435   7.741   1.563 -0.3090 -0.5857 -0.7914
 3380SOL    HW111581   1.372   7.737   1.635  0.4384  1.5326  0.0531
 3380SOL    HW211582   1.464   7.650   1.552 -0.9680 -1.0812  1.1165
 3381SOL     OW11583   4.178   5.677  11.985 -0.1619  0.4644  0.0499
 3381SOL    HW111584   4.105   5.616  11.983  0.1866  0.0273  0.3070
 3381SOL    HW211585   4.182   5.714  11.897 -0.8205  0.6511  0.0951
 3382SOL     OW11586   0.959   5.580   6.548  0.0411  0.1912 -0.4489
 3382SOL    HW111587   0.904   5.505   6.523  1.6128 -0.8252 -0.9489
 3382SOL    HW211588   1.009   5.549   6.623 -0.8468  1.4965  0.7297
 3383SOL     OW11589   6.241   0.218   6.553  0.2291 -0.2349 -0.2159
 3383SOL    HW111590   6.242   0.308   6.522 -0.7208 -0.4497 -0.8980
 3383SOL    HW211591   6.204   0.167   6.481  1.1827 -1.2474 -0.0278
 3384SOL     OW11592   6.459   0.930   0.921 -0.6395 -0.2492 -0.3378
 3384SOL    HW111593   6.455   1.018   0.881 -1.1738 -0.1273 -0.0204
 3384SOL    HW211594   6.372   0.917   0.959 -0.0610 -0.2547  1.0216
 3385SOL     OW11595   6.146   5.526   1.760  0.0071  0.3881 -0.4441
 3385SOL    HW111596   6.200   5.602   1.784 -0.1789 -0.0999  1.7189
 3385SOL    HW211597   6.083   5.518   1.832  0.7175 -2.4698 -0.0396
 3386SOL     OW11598   0.501   0.934   8.734 -1.1131  0.2878 -0.1889
 3386SOL    HW111599   0.561   0.994   8.777 -0.7387 -0.5253  0.4700
 3386SOL    HW211600   0.485   0.865   8.799 -2.2007  0.1143 -0.6055
 3387SOL     OW11601   6.153   1.251   3.882  0.2327  0.1355  0.4447
 3387SOL    HW111602   6.066   1.216   3.864 -0.7237 -0.7239  5.2891
 3387SOL    HW211603   6.142   1.346   3.880 -0.9226  0.0304  1.2981
 3388SOL     OW11604   2.610   4.331  10.633  0.9215  0.5907  0.4813
 3388SOL    HW111605   2.662   4.398  10.679  2.1727 -0.2394  0.3197
 3388SOL    HW211606   2.568   4.379  10.562  0.2378  1.5784  1.5231
 3389SOL     OW11607   5.619   0.578   9.177  0.0436 -0.1766 -0.4113
 3389SOL    HW111608   5.620   0.606   9.086 -2.3922 -2.0392 -1.1296
 3389SOL    HW211609   5.541   0.523   9.184  0.3248 -0.3616  2.7345
 3390SOL     OW11610   7.796   4.060   4.378  0.5744 -0.7492  0.8173
 3390SOL    HW111611   7.793   4.154   4.357 -1.8287 -0.8205  0.5104
 3390SOL    HW211612   7.768   4.055   4.469  0.5294 -1.1677  0.7825
 3391SOL     OW11613   6.732   3.579   6.843  0.0850  0.0417 -0.0246
 3391SOL    HW111614   6.725   3.672   6.824  3.0843  0.5905  1.1082
 3391SOL    HW211615   6.686   3.568   6.926  0.3907  0.6873  0.2376
 3392SOL     OW11616   7.320   6.193  10.901 -0.1017 -0.2240  0.4532
 3392SOL    HW111617   7.368   6.150  10.830  1.1227 -0.6728  1.5265
 3392SOL    HW211618   7.388   6.219  10.963 -1.2767 -1.2129  2.2027
 3393SOL     OW11619   4.285   6.469   2.687 -0.0414 -0.2477  0.0334
 3393SOL    HW111620   4.217   6.531   2.662  0.4803  0.1581 -0.4118
 3393SOL    HW211621   4.367   6.517   2.673  0.3061 -0.1941  2.0106
 3394SOL     OW11622   6.982   7.683   3.837  0.5076 -0.0444  0.4003
 3394SOL    HW111623   7.046   7.714   3.774  0.4896  0.0579  0.4318
 3394SOL    HW211624   6.920   7.755   3.847 -0.1671 -0.5068 -0.3633
 3395SOL     OW11625   5.597   7.737  10.652  0.0421 -0.0898  0.4548
 3395SOL    HW111626   5.660   7.692  10.709 -0.7206 -0.3026  1.1507
 3395SOL    HW211627   5.597   7.685  10.572  0.8616  0.0033  0.3777
 3396SOL     OW11628   4.592   0.935   1.197 -0.5233 -0.2576  0.0247
 3396SOL    HW111629   4.681   0.900   1.188  0.4886  2.0835  0.2081
 3396SOL    HW211630   4.603   1.015   1.248 -2.7476  0.1431 -0.0362
 3397SOL     OW11631   4.515   0.934  10.830  0.4283 -0.2788  0.3133
 3397SOL    HW111632   4.531   0.892  10.915  0.2361 -0.1579  0.4101
 3397SOL    HW211633   4.591   0.991  10.818  0.8754 -0.9252  0.0055
 3398SOL     OW11634   3.665   4.624   7.358  0.4555 -0.4140 -0.5930
 3398SOL    HW111635   3.571   4.618   7.343  0.3839 -0.0652 -0.3171
 3398SOL    HW211636   3.673   4.672   7.441  0.8825 -0.0939 -0.8116
 3399SOL     OW11637   6.777   0.915   4.920  0.0203 -0.4068  0.2306
 3399SOL    HW111638   6.706   0.896   4.981  0.1316  1.5165  1.0490
 3399SOL    HW211639   6.735   0.960   4.847  0.1618 -0.8665 -0.1356
 3400SOL     OW11640   4.067   7.783   3.538 -0.7157  0.4558  0.2389
 3400SOL    HW111641   4.051   7.737   3.620 -0.0924  1.2748  0.8294
 3400SOL    HW211642   4.042   7.720   3.470  0.0286 -0.7365  1.0253
 3401SOL     OW11643   4.906   0.947   5.121 -0.2364 -0.0730  0.3791
 3401SOL    HW111644   4.827   0.941   5.068 -1.0804  2.7891  1.1589
 3401SOL    HW211645   4.888   1.016   5.185  1.7680 -1.4365  2.6329
 3402SOL     OW11646   5.289   7.539   7.179  0.0186 -0.1359  0.0647
 3402SOL    HW111647   5.343   7.569   7.252  0.2128  2.2586 -0.9469
 3402SOL    HW211648   5.351   7.502   7.117 -0.1009 -1.7824  0.8715
 3403SOL     OW11649   6.804   0.142   6.038 -0.6076 -0.5375  0.3621
 3403SOL    HW111650   6.886   0.107   6.003  0.2202  0.4852  1.2030
 3403SOL    HW211651   6.756   0.065   6.068  0.1305 -1.1333  0.0479
 3404SOL     OW11652   3.599   1.432   0.069  0.4078  0.4148  0.1425
 3404SOL    HW111653   3.642   1.497   0.124  0.3688 -0.5138  1.3207
 3404SOL    HW211654   3.671   1.391   0.020  0.6933  0.0065  0.8761
 3405SOL     OW11655   1.792   3.636   1.551  0.1424  0.1397  0.0738
 3405SOL    HW111656   1.851   3.623   1.625  0.3908  0.4281 -0.0713
 3405SOL    HW211657   1.827   3.713   1.506 -0.1709  0.1324 -0.1826
 3406SOL     OW11658   4.608   0.548   9.623  0.5550  0.0818  0.2570
 3406SOL    HW111659   4.540   0.566   9.687  0.8273  0.7311  0.3688
 3406SOL    HW211660   4.689   0.549   9.674  0.9795  2.3785 -0.3542
 3407SOL     OW11661   7.180   7.751   7.661  0.3672  0.0122  0.3447
 3407SOL    HW111662   7.169   7.729   7.753 -3.9182 -0.3336 -0.0479
 3407SOL    HW211663   7.191   7.847   7.660  2.6074 -0.1677  1.1879
 3408SOL     OW11664   6.612   2.079   4.094 -0.0422 -0.0172 -0.2275
 3408SOL    HW111665   6.619   2.058   4.187 -1.6417 -1.7662 -0.4504
 3408SOL    HW211666   6.690   2.132   4.076  0.5231  0.0261  1.9941
 3409SOL     OW11667   1.030   7.887   2.290 -0.2849 -0.1170 -0.1993
 3409SOL    HW111668   1.062   7.975   2.272  0.6508 -0.5145 -0.5383
 3409SOL    HW211669   0.935   7.893   2.277  0.0252  0.2412 -2.8470
 3410SOL     OW11670   6.342   3.176   7.413  0.5843  0.1905 -0.7848
 3410SOL    HW111671   6.358   3.087   7.446 -0.0076  0.4651  0.2801
 3410SOL    HW211672   6.371   3.234   7.483 -1.4646  0.7688 -0.3392
 3411SOL     OW11673   5.741   2.485   0.404  0.0043 -0.0338 -0.7071
 3411SOL    HW111674   5.832   2.500   0.428 -0.8986  1.9593  1.9727
 3411SOL    HW211675   5.692   2.500   0.485 -2.8220  0.2916 -2.3520
 3412SOL     OW11676   6.204   4.541   4.436  0.8564  0.3385  0.2924
 3412SOL    HW111677   6.230   4.455   4.403  0.2266  0.0822  0.4557
 3412SOL    HW211678   6.286   4.582   4.464  1.0775 -0.4784  0.8551
 3413SOL     OW11679   4.709   2.526   7.674  0.3415 -0.1100 -0.8595
 3413SOL    HW111680   4.675   2.571   7.597 -2.2724 -0.7417 -0.1477
 3413SOL    HW211681   4.635   2.477   7.708  0.7525  1.7607  3.3143
 3414SOL     OW11682   2.828   4.679   1.761  0.1455  0.0690 -0.5459
 3414SOL    HW111683   2.890   4.628   1.813 -1.0754 -2.2339 -1.2109
 3414SOL    HW211684   2.742   4.658   1.799 -0.4049  2.0128 -0.5804
 3415SOL     OW11685   7.309   6.865   0.042 -0.5904  0.0481  0.1486
 3415SOL    HW111686   7.348   6.789  -0.001  1.1815  0.8556  0.2376
 3415SOL    HW211687   7.376   6.933   0.035 -2.3425  1.8248 -0.4920
 3416SOL     OW11688   6.777   3.200   7.201  0.1050  0.0071  0.0879
 3416SOL    HW111689   6.703   3.236   7.250 -0.8194 -1.5371 -0.1235
 3416SOL    HW211690   6.776   3.107   7.220  1.3217 -0.2212 -0.8189
 3417SOL     OW11691   7.828   7.128   7.369 -0.2533 -0.3523  1.2695
 3417SOL    HW111692   7.895   7.127   7.301 -1.7751 -1.6940 -0.3082
 3417SOL    HW211693   7.876   7.144   7.450  1.5297  2.3610 -0.1528
 3418SOL     OW11694   1.370   6.976   0.413  0.0075 -0.0053  0.3995
 3418SOL    HW111695   1.367   6.913   0.484  1.5135 -0.0929  0.4169
 3418SOL    HW211696   1.443   7.033   0.435 -0.1449  0.5877 -0.5763
 3419SOL     OW11697   6.537   0.822   5.006 -0.0488 -0.5561 -0.3604
 3419SOL    HW111698   6.543   0.733   5.041 -0.9272 -0.4503  0.0926
 3419SOL    HW211699   6.444   0.843   5.011  0.3778  1.1989  1.6125
 3420SOL     OW11700   6.433   4.928   7.707 -0.2883  0.1995  0.4538
 3420SOL    HW111701   6.401   4.921   7.797 -0.4078  2.3671  0.6421
 3420SOL    HW211702   6.354   4.926   7.654 -0.2886 -0.1209  0.4632
 3421SOL     OW11703   2.192   4.060   1.438 -0.0073  0.2293  0.0851
 3421SOL    HW111704   2.193   4.156   1.431  1.0129  0.1897 -0.6449
 3421SOL    HW211705   2.195   4.030   1.347 -2.3224 -0.5375  0.1960
 3422SOL     OW11706   5.702   7.832   9.898  0.0970 -0.1084 -0.2141
 3422SOL    HW111707   5.744   7.899   9.953 -0.0282 -0.0444 -0.1971
 3422SOL    HW211708   5.716   7.863   9.808  1.4899 -0.8869 -0.3027
 3423SOL     OW11709   4.876   4.529   4.834  0.4476 -0.0444 -0.3165
 3423SOL    HW111710   4.904   4.444   4.868  0.6355 -0.0007 -0.3603
 3423SOL    HW211711   4.942   4.591   4.866  0.2147  0.1129 -0.1383
 3424SOL     OW11712   0.724   5.338   5.546  0.6586  0.1028 -0.3119
 3424SOL    HW111713   0.808   5.384   5.540  0.6490  0.6657  2.6528
 3424SOL    HW211714   0.671   5.377   5.476  2.4204  0.6418 -1.4137
 3425SOL     OW11715   7.137   2.652   6.163  0.1002  0.2080  0.3904
 3425SOL    HW111716   7.063   2.605   6.126  1.1094 -2.0738  1.1251
 3425SOL    HW211717   7.138   2.629   6.255  0.7850  1.5276  0.7521
 3426SOL     OW11718   0.608   3.092   4.350  0.1083 -0.0609  0.2378
 3426SOL    HW111719   0.664   3.024   4.313 -0.9543 -0.8651  0.0826
 3426SOL    HW211720   0.637   3.099   4.441  0.2825 -0.6678  0.2346
 3427SOL     OW11721   4.322   3.625   5.085  0.0988 -0.0757 -0.2068
 3427SOL    HW111722   4.356   3.630   4.995 -0.2657  0.5288 -0.3126
 3427SOL    HW211723   4.359   3.544   5.119 -0.8228 -1.0265 -1.3544
 3428SOL     OW11724   2.666   7.508   6.169  0.7607  0.3283  0.5028
 3428SOL    HW111725   2.626   7.561   6.100  2.0904  3.6392  2.0411
 3428SOL    HW211726   2.626   7.541   6.250  2.2682 -0.4238  1.6051
 3429SOL     OW11727   5.338   6.113  10.182 -0.5280 -0.3509 -0.0110
 3429SOL    HW111728   5.315   6.164  10.104  0.0282  0.5053  0.3684
 3429SOL    HW211729   5.419   6.067  10.158  0.1960  0.6952  0.3847
 3430SOL     OW11730   3.189   2.232  11.128  0.0975 -0.3046  0.0023
 3430SOL    HW111731   3.124   2.232  11.199  0.1073 -0.6184  0.0145
 3430SOL    HW211732   3.215   2.140  11.120 -0.3875 -0.3769 -0.8555
 3431SOL     OW11733   1.219   1.367   3.791  0.3914 -0.2959 -0.0731
 3431SOL    HW111734   1.204   1.329   3.877 -1.1788 -2.6051 -1.2468
 3431SOL    HW211735   1.314   1.360   3.777  0.4731 -1.3388  0.8707
 3432SOL     OW11736   5.827   6.060   3.610  0.2277 -0.4086 -0.2385
 3432SOL    HW111737   5.921   6.042   3.601  0.0473 -0.5569 -2.1695
 3432SOL    HW211738   5.823   6.142   3.660  1.3682 -0.4714 -0.0205
 3433SOL     OW11739   5.186   5.536   0.384  0.4563  0.4830  0.6177
 3433SOL    HW111740   5.251   5.592   0.426  0.5059  0.5013  0.5165
 3433SOL    HW211741   5.220   5.447   0.395  0.3985  0.4755  0.7413
 3434SOL     OW11742   6.419   2.640   6.053  0.2256  0.8468  0.0721
 3434SOL    HW111743   6.409   2.547   6.034  0.3703  0.7392  0.5033
 3434SOL    HW211744   6.472   2.642   6.134  0.1849  1.2984  0.0888
 3435SOL     OW11745   4.480   1.695   6.502  0.3497  0.4535 -0.0786
 3435SOL    HW111746   4.444   1.698   6.591 -1.2508  3.9591 -0.6714
 3435SOL    HW211747   4.565   1.738   6.508 -0.4271  2.1115 -0.4158
 3436SOL     OW11748   5.899   5.621   1.535 -0.3379 -0.0233 -0.0138
 3436SOL    HW111749   5.986   5.608   1.574 -0.4445 -0.0825  0.2095
 3436SOL    HW211750   5.858   5.534   1.539 -0.2067 -0.1174 -0.6205
 3437SOL     OW11751   7.685   4.571   8.212  0.2257  0.2174  0.4204
 3437SOL    HW111752   7.624   4.589   8.284 -1.9170 -0.2624 -1.1806
 3437SOL    HW211753   7.727   4.489   8.236  0.5133  0.7169  1.7118
 3438SOL     OW11754   5.516   0.619  10.947  0.7669  0.6352  0.6623
 3438SOL    HW111755   5.608   0.604  10.968  0.8071 -2.0120 -1.0046
 3438SOL    HW211756   5.516   0.650  10.857 -0.0021 -0.6872  0.1778
 3439SOL     OW11757   3.177   0.315   4.327  0.2339  0.3420 -0.6815
 3439SOL    HW111758   3.198   0.372   4.253  1.0405  1.3003  0.2459
 3439SOL    HW211759   3.224   0.354   4.401 -1.3974  0.0209  0.5715
 3440SOL     OW11760   2.997   2.235   7.908 -0.9050  0.4181 -0.0442
 3440SOL    HW111761   2.921   2.189   7.873  0.0726 -0.3220 -1.2266
 3440SOL    HW211762   2.981   2.327   7.886 -1.0865  0.1670 -0.9801
 3441SOL     OW11763   5.793   7.264  11.704  0.9296  0.0771 -0.8858
 3441SOL    HW111764   5.792   7.300  11.616 -0.7985 -0.8336 -1.2807
 3441SOL    HW211765   5.713   7.211  11.710  0.2461  1.2448  1.7059
 3442SOL     OW11766   3.594   1.654   2.347  0.1248 -0.2266 -0.1512
 3442SOL    HW111767   3.688   1.661   2.365  0.1287  0.5993 -0.4385
 3442SOL    HW211768   3.555   1.721   2.404 -0.4751 -1.7178  1.2560
 3443SOL     OW11769   7.664   2.248  11.688 -0.3124 -0.3692  0.3124
 3443SOL    HW111770   7.646   2.325  11.742  0.1709 -1.1126  1.5883
 3443SOL    HW211771   7.626   2.175  11.737 -2.3671 -0.7750 -1.7466
 3444SOL     OW11772   0.526   0.551  12.030 -0.1516  0.2187  0.1021
 3444SOL    HW111773   0.483   0.633  12.006  0.5038  0.7848  0.8213
 3444SOL    HW211774   0.456   0.485  12.028 -0.4376  0.5411 -1.7076
 3445SOL     OW11775   3.054   4.713  12.258  0.2674  0.0647 -0.2519
 3445SOL    HW111776   3.060   4.677  12.170 -2.3034 -1.2721  0.0488
 3445SOL    HW211777   2.961   4.708  12.280  0.6226  1.7875  1.9733
 3446SOL     OW11778   5.566   0.544   5.652  0.0120  0.0608  0.2646
 3446SOL    HW111779   5.586   0.532   5.745  0.6644  0.8283  0.2382
 3446SOL    HW211780   5.564   0.456   5.616 -0.4652 -0.2599  1.0472
 3447SOL     OW11781   4.384   2.862  11.869 -0.7644 -0.3631  0.3821
 3447SOL    HW111782   4.332   2.900  11.799 -0.9673  0.1947  0.8199
 3447SOL    HW211783   4.332   2.788  11.900 -0.6940 -0.5837 -0.0238
 3448SOL     OW11784   7.090   0.766   5.725 -0.7678  0.0825 -0.6779
 3448SOL    HW111785   7.141   0.726   5.795 -1.6371  0.4625  0.1995
 3448SOL    HW211786   7.154   0.788   5.658  0.0325 -0.6307 -0.1590
 3449SOL     OW11787   7.843   0.904   3.332 -0.4111  0.1361  0.7359
 3449SOL    HW111788   7.867   0.991   3.364 -0.7273  0.1976  0.8106
 3449SOL    HW211789   7.811   0.919   3.243 -2.3407  0.3805  1.4306
 3450SOL     OW11790   7.396   3.741   9.799  0.4031 -0.3124 -0.2112
 3450SOL    HW111791   7.393   3.648   9.818  0.9812 -0.0424  1.3756
 3450SOL    HW211792   7.467   3.774   9.854  0.4668  1.0017 -1.0381
 3451SOL     OW11793   5.862   3.881   0.894  0.5952  0.8687  0.4602
 3451SOL    HW111794   5.884   3.920   0.809 -0.9818  1.7380  0.4080
 3451SOL    HW211795   5.843   3.957   0.950 -0.2077  0.2416  1.0519
 3452SOL     OW11796   1.988   7.145   5.209 -0.5257 -0.2053 -0.1430
 3452SOL    HW111797   2.001   7.094   5.289  0.0705 -0.0560 -0.1384
 3452SOL    HW211798   1.894   7.143   5.194 -0.5881 -0.6529  0.2885
 3453SOL     OW11799   1.652   2.595   0.502 -0.2881 -0.2379 -0.1921
 3453SOL    HW111800   1.693   2.548   0.429 -0.9836 -1.8338  0.3917
 3453SOL    HW211801   1.715   2.588   0.574  0.4718  1.4806 -0.6466
 3454SOL     OW11802   2.719   7.584   4.494 -0.0100 -0.4873  0.6709
 3454SOL    HW111803   2.678   7.660   4.452  1.1182 -0.9266 -1.4208
 3454SOL    HW211804   2.647   7.528   4.521 -0.8247  0.2168 -0.0071
 3455SOL     OW11805   3.921   7.025   9.106  0.0930 -0.0619  0.3770
 3455SOL    HW111806   4.004   7.041   9.151  0.5375 -0.3394 -0.3339
 3455SOL    HW211807   3.865   6.984   9.173  1.0983 -1.4606  0.3898
 3456SOL     OW11808   1.719   7.558   0.368  0.1093 -0.1811 -0.4302
 3456SOL    HW111809   1.757   7.505   0.298  1.2503  1.4874 -1.1392
 3456SOL    HW211810   1.781   7.630   0.379 -0.7547  0.3313  1.3709
 3457SOL     OW11811   2.226   4.005   8.751 -0.0663  0.4860 -0.0772
 3457SOL    HW111812   2.177   3.987   8.671  1.4369  0.9999 -1.1548
 3457SOL    HW211813   2.239   3.919   8.791 -0.8745  0.2318 -0.3301
 3458SOL     OW11814   0.527   6.671   0.145 -0.3827  0.1558  0.5634
 3458SOL    HW111815   0.592   6.669   0.216 -1.3556 -0.4611  1.4654
 3458SOL    HW211816   0.490   6.759   0.148 -1.6913 -0.4115  2.0317
 3459SOL     OW11817   2.906   5.872   9.139  0.0943  0.2747  0.0336
 3459SOL    HW111818   2.898   5.788   9.183  0.6996 -0.1562 -0.6586
 3459SOL    HW211819   2.998   5.897   9.150  0.6643 -0.5678 -2.2092
 3460SOL     OW11820   2.763   1.381   7.920  0.2097  0.3366 -0.1741
 3460SOL    HW111821   2.761   1.400   8.014  1.8915 -2.1666  0.4604
 3460SOL    HW211822   2.745   1.288   7.913 -1.7986  0.7953 -2.5619
 3461SOL     OW11823   4.768   3.898   5.240  0.5349  0.2235 -0.0115
 3461SOL    HW111824   4.782   3.824   5.299  1.1068 -0.3396 -0.8431
 3461SOL    HW211825   4.793   3.974   5.293  4.7958 -0.5115 -0.5937
 3462SOL     OW11826   3.351   7.714   9.171 -0.3231  0.1267 -0.2399
 3462SOL    HW111827   3.445   7.704   9.157  0.0314  0.6431  1.5232
 3462SOL    HW211828   3.316   7.740   9.085  1.1735  0.2155 -0.8480
 3463SOL     OW11829   1.598   6.512  10.112 -0.1284 -0.3366  0.3089
 3463SOL    HW111830   1.589   6.488  10.204  2.5635 -1.5634  0.3426
 3463SOL    HW211831   1.578   6.605  10.109 -0.1606 -0.2553  2.1417
 3464SOL     OW11832   3.177   1.285   3.712  0.1541 -0.1040  0.2105
 3464SOL    HW111833   3.114   1.330   3.769 -1.1520 -0.4776 -0.8862
 3464SOL    HW211834   3.143   1.196   3.705  1.7056 -0.7771  0.8686
 3465SOL     OW11835   1.644   4.478   8.024  0.4315  0.8785  0.7362
 3465SOL    HW111836   1.567   4.530   8.048  0.2360  1.2232 -0.5584
 3465SOL    HW211837   1.705   4.542   7.987  0.3070  0.2685 -0.5983
 3466SOL     OW11838   2.364   0.654   1.419 -0.2726  0.0018  0.7984
 3466SOL    HW111839   2.430   0.599   1.461  0.6703 -0.2596 -0.9431
 3466SOL    HW211840   2.414   0.714   1.364 -1.4515  0.4265  0.1577
 3467SOL     OW11841   0.272   4.952  11.985 -0.3215  0.0814 -0.0955
 3467SOL    HW111842   0.308   4.891  12.049  0.4609 -2.3639 -2.6294
 3467SOL    HW211843   0.348   4.996  11.947 -0.6263  0.3552 -0.4049
 3468SOL     OW11844   1.172   1.601   1.104 -0.0276 -0.8277 -0.4676
 3468SOL    HW111845   1.110   1.548   1.054 -1.4063 -1.4026  1.7273
 3468SOL    HW211846   1.249   1.607   1.046 -1.2396 -2.0031 -2.3438
 3469SOL     OW11847   4.936   6.320   1.432 -0.5504 -0.6260 -0.5000
 3469SOL    HW111848   4.942   6.345   1.525 -2.9197 -0.0133 -0.4642
 3469SOL    HW211849   4.881   6.242   1.432  2.4851 -2.9949 -1.1306
 3470SOL     OW11850   6.553   1.365   7.835 -0.3818 -0.4021  0.4093
 3470SOL    HW111851   6.522   1.341   7.747  0.2811 -1.6652  0.4999
 3470SOL    HW211852   6.531   1.458   7.843 -0.6822 -0.3209 -0.9983
 3471SOL     OW11853   1.484   0.340   0.527  0.1789 -0.1477 -0.1873
 3471SOL    HW111854   1.540   0.418   0.531  0.6403 -0.4403 -0.7628
 3471SOL    HW211855   1.444   0.335   0.613  2.0368 -0.6459  0.6871
 3472SOL     OW11856   2.050   7.854   6.278  0.1163  0.5099  0.1164
 3472SOL    HW111857   1.993   7.878   6.350 -0.9812 -1.4714 -0.0328
 3472SOL    HW211858   2.055   7.759   6.281  1.9624  0.5143 -0.9942
 3473SOL     OW11859   0.459   2.877   0.886 -0.0153  0.4706  0.6210
 3473SOL    HW111860   0.465   2.804   0.825  0.6542  0.1969  1.0117
 3473SOL    HW211861   0.510   2.850   0.962  1.0141  1.7138  0.4044
 3474SOL     OW11862   4.760   1.973   7.842  0.3495 -0.7438  0.7220
 3474SOL    HW111863   4.787   2.064   7.855  1.0435 -0.7813 -0.3243
 3474SOL    HW211864   4.769   1.933   7.928  0.5932  0.0408  1.0733
 3475SOL     OW11865   6.498   2.669   5.755  0.2316 -0.3568 -0.1497
 3475SOL    HW111866   6.518   2.646   5.846  0.6082  1.8165  0.3743
 3475SOL    HW211867   6.431   2.606   5.729  1.4730 -2.2629  0.9590
 3476SOL     OW11868   3.453   3.746  10.900 -0.3250  0.3880 -0.4333
 3476SOL    HW111869   3.417   3.743  10.989 -2.9879 -1.5307 -1.4408
 3476SOL    HW211870   3.543   3.775  10.912  0.0255 -1.5581  3.1056
 3477SOL     OW11871   2.858   3.775  10.494 -0.0971 -0.0195  0.4910
 3477SOL    HW111872   2.882   3.839  10.428  0.3166 -0.2562  0.4058
 3477SOL    HW211873   2.777   3.736  10.462  0.7331 -0.9811 -0.4872
 3478SOL     OW11874   0.194   3.762  10.254  1.1011 -0.0869 -0.0853
 3478SOL    HW111875   0.275   3.758  10.203  1.6219  0.2637  0.6924
 3478SOL    HW211876   0.162   3.851  10.241  2.8292  1.0405  2.5182
 3479SOL     OW11877   1.960   3.778  10.267  0.4365  0.0346  0.2896
 3479SOL    HW111878   2.013   3.783  10.187  2.2420 -0.0876  1.4105
 3479SOL    HW211879   1.953   3.869  10.297 -0.9032  0.1723 -0.3926
 3480SOL     OW11880   7.039   0.036   0.200  0.0629  0.4095 -0.3193
 3480SOL    HW111881   7.036   0.055   0.294  1.2766 -1.4534  0.1557
 3480SOL    HW211882   6.970  -0.029   0.186  0.5777 -0.1237 -0.4709
 3481SOL     OW11883   2.115   3.027   9.123 -0.3554  0.2520 -0.0398
 3481SOL    HW111884   2.202   3.032   9.162 -1.6267  2.8902  2.9174
 3481SOL    HW211885   2.120   3.082   9.045  0.9265 -0.7310 -0.6767
 3482SOL     OW11886   4.633   6.243   1.922 -0.3642  0.4554 -0.1729
 3482SOL    HW111887   4.684   6.172   1.885 -1.6426 -0.2760 -0.5704
 3482SOL    HW211888   4.629   6.223   2.016  0.1905  0.6126 -0.1064
 3483SOL     OW11889   1.943   7.817   9.403 -0.2203  0.7351 -0.2870
 3483SOL    HW111890   1.979   7.733   9.431 -1.5058 -0.0464 -0.9000
 3483SOL    HW211891   1.980   7.880   9.465  0.2018 -0.3763  0.6370
 3484SOL     OW11892   5.578   3.571   5.978 -0.1346  0.4211 -0.5683
 3484SOL    HW111893   5.556   3.593   5.887 -0.4345  0.3575 -0.5118
 3484SOL    HW211894   5.495   3.543   6.017  0.2897 -1.1758 -0.7483
 3485SOL     OW11895   1.469   3.114   5.801  0.4206 -0.2007  0.1102
 3485SOL    HW111896   1.465   3.085   5.892 -1.5748  1.3752  0.5981
 3485SOL    HW211897   1.380   3.140   5.780  1.3383  2.0580 -1.4018
 3486SOL     OW11898   6.420   4.961   3.187 -0.6874  0.1215 -0.2218
 3486SOL    HW111899   6.330   4.961   3.153 -0.2926 -0.7624 -1.3581
 3486SOL    HW211900   6.419   5.025   3.258 -1.9944  0.7919 -0.8039
 3487SOL     OW11901   4.960   1.739  11.806 -0.6569  0.4090 -0.1018
 3487SOL    HW111902   4.944   1.645  11.791  0.7157  0.0460  0.6211
 3487SOL    HW211903   4.992   1.771  11.721 -0.3622  0.0487 -0.1301
 3488SOL     OW11904   5.934   5.783   0.278  0.2902 -0.1086 -0.1444
 3488SOL    HW111905   5.847   5.823   0.278  0.0481 -0.6176 -0.7998
 3488SOL    HW211906   5.978   5.822   0.354 -1.4099 -1.8388  1.8610
 3489SOL     OW11907   1.577   3.099   8.647  0.2228  0.2843 -0.1896
 3489SOL    HW111908   1.605   3.009   8.663 -0.3304 -0.4643 -2.9022
 3489SOL    HW211909   1.585   3.110   8.553 -1.8541  2.3432 -0.2162
 3490SOL     OW11910   0.217   5.664   7.551 -0.0452 -0.4890 -0.2129
 3490SOL    HW111911   0.219   5.759   7.538  0.8918 -0.3651  0.6616
 3490SOL    HW211912   0.181   5.653   7.639  0.4478 -0.9000 -0.0566
 3491SOL     OW11913   7.369   1.885   4.935  0.3664  0.6245  0.2910
 3491SOL    HW111914   7.437   1.937   4.977  0.5353  1.4940 -1.0310
 3491SOL    HW211915   7.329   1.943   4.871  0.2971 -0.7329 -0.9521
 3492SOL     OW11916   7.185   7.038   2.871  0.4967 -0.4244 -0.3253
 3492SOL    HW111917   7.248   6.966   2.880  0.3161 -0.7277 -1.3851
 3492SOL    HW211918   7.147   7.048   2.958  1.2094 -0.9769  0.0573
 3493SOL     OW11919   1.297   6.837   2.107  0.1232  0.2391  0.0647
 3493SOL    HW111920   1.376   6.843   2.053  0.0369 -0.3819 -0.1301
 3493SOL    HW211921   1.316   6.767   2.169 -1.2539 -1.7300 -1.6282
 3494SOL     OW11922   5.932   6.999  10.981  0.3006  0.6237  0.5050
 3494SOL    HW111923   5.973   6.915  11.001 -0.2146  0.1208 -0.4710
 3494SOL    HW211924   6.003   7.053  10.949  0.2171 -0.3153 -1.3976
 3495SOL     OW11925   2.329   0.381   2.633 -0.3826  0.1691  0.0164
 3495SOL    HW111926   2.259   0.426   2.681 -2.4333 -2.2463 -0.5184
 3495SOL    HW211927   2.393   0.357   2.701 -0.2038  2.0668  0.5682
 3496SOL     OW11928   4.041   5.500   0.863  0.2488  0.3634  0.2971
 3496SOL    HW111929   4.004   5.587   0.851  0.7110  0.4939 -0.2181
 3496SOL    HW211930   4.063   5.497   0.957  0.2742  0.8217  0.3100
 3497SOL     OW11931   1.122   3.751  10.259 -0.1762 -0.4287 -0.2200
 3497SOL    HW111932   1.099   3.841  10.280 -0.2607 -0.5105  0.0424
 3497SOL    HW211933   1.064   3.727  10.187 -1.2107 -0.7641  0.6871
 3498SOL     OW11934   0.789   5.321   7.086 -0.2859  0.1368 -0.3943
 3498SOL    HW111935   0.758   5.248   7.033 -0.3624 -0.3934  0.3756
 3498SOL    HW211936   0.884   5.321   7.072 -0.4166  0.6510 -1.3434
 3499SOL     OW11937   6.400   2.160   4.583 -0.0863 -0.7364  0.6337
 3499SOL    HW111938   6.402   2.254   4.564  0.3974 -0.5842  1.4063
 3499SOL    HW211939   6.329   2.126   4.527  1.9027 -0.5294 -2.2347
 3500SOL     OW11940   2.134   7.226   4.182  0.1608 -0.1529  0.0316
 3500SOL    HW111941   2.199   7.216   4.252  0.2269  1.2814  0.1904
 3500SOL    HW211942   2.106   7.136   4.163  1.1636 -0.6772  0.9269
 3501SOL     OW11943   5.450   4.943  10.798 -0.0334  0.2520  0.1814
 3501SOL    HW111944   5.356   4.934  10.783  0.1542  1.0842 -1.8961
 3501SOL    HW211945   5.461   5.029  10.837 -0.0348  0.9432 -1.2692
 3502SOL     OW11946   6.469   0.136   0.977  0.4745  0.5722  0.0218
 3502SOL    HW111947   6.384   0.138   1.022  0.0136 -1.2429 -0.6540
 3502SOL    HW211948   6.458   0.194   0.902 -0.4161 -0.1211 -0.4088
 3503SOL     OW11949   0.024   3.307   3.434 -0.0206  0.3015 -0.1272
 3503SOL    HW111950  -0.009   3.328   3.521  0.7218 -0.0652  0.2490
 3503SOL    HW211951   0.053   3.216   3.441  1.1181  0.6327 -0.4325
 3504SOL     OW11952   7.065   1.183   3.756  0.5795  0.6087 -0.5264
 3504SOL    HW111953   7.159   1.202   3.761  1.1937 -2.2546  0.6660
 3504SOL    HW211954   7.037   1.179   3.848 -0.3424 -0.0387 -0.8245
 3505SOL     OW11955   4.103   3.547   0.739 -0.5450  0.4713 -0.4883
 3505SOL    HW111956   4.106   3.453   0.719 -3.4054  0.3819 -0.9139
 3505SOL    HW211957   4.092   3.550   0.834 -0.6361  0.3742 -0.4956
 3506SOL     OW11958   4.739   3.639   6.750  0.0381 -0.1340  0.1034
 3506SOL    HW111959   4.724   3.669   6.661 -2.7350  2.2051  1.1917
 3506SOL    HW211960   4.835   3.639   6.759  0.3807  2.8126 -1.9264
 3507SOL     OW11961   7.142   3.474   6.582 -0.4127  0.0528 -0.3380
 3507SOL    HW111962   7.223   3.431   6.556  0.2715  1.8471 -1.3432
 3507SOL    HW211963   7.166   3.527   6.658 -1.0432 -0.6417  0.3661
 3508SOL     OW11964   0.524   1.941  10.266  0.2927  0.6924 -0.1047
 3508SOL    HW111965   0.488   1.934  10.177 -0.9328  0.6642  0.3745
 3508SOL    HW211966   0.600   1.998  10.257  0.4966  0.2647 -1.2604
 3509SOL     OW11967   0.708   3.124   5.346 -0.3628  0.0697 -0.5628
 3509SOL    HW111968   0.725   3.200   5.290 -0.8657 -0.0932 -0.9417
 3509SOL    HW211969   0.644   3.072   5.297  1.0906 -1.3714 -1.0051
 3510SOL     OW11970   5.433   0.519   7.080 -0.6532 -0.1101 -0.0897
 3510SOL    HW111971   5.372   0.465   7.130 -0.8560  0.1441 -0.0612
 3510SOL    HW211972   5.482   0.456   7.026 -1.4849 -0.2558 -0.6986
 3511SOL     OW11973   6.333   6.394  10.909 -0.2881 -0.1290 -0.5861
 3511SOL    HW111974   6.379   6.473  10.935 -2.1936  1.0115 -0.4906
 3511SOL    HW211975   6.378   6.364  10.830  2.2256 -0.6170  0.9236
 3512SOL     OW11976   4.466   2.162   2.583 -0.1816 -0.1238  0.2596
 3512SOL    HW111977   4.515   2.156   2.501  1.3462  0.1145  1.0990
 3512SOL    HW211978   4.516   2.225   2.635  0.1609 -1.8986  2.1966
 3513SOL     OW11979   6.418   4.664  11.699  0.3609 -0.5448  0.1731
 3513SOL    HW111980   6.427   4.741  11.643 -0.8603  0.3175  1.1143
 3513SOL    HW211981   6.454   4.592  11.647  1.7634  0.6809 -0.6398
 3514SOL     OW11982   4.006   1.638   0.170  0.0466  0.3627  0.9066
 3514SOL    HW111983   4.090   1.654   0.214 -0.1006  1.0502  0.9487
 3514SOL    HW211984   4.025   1.648   0.077 -0.0242  0.6926  0.9269
 3515SOL     OW11985   3.318   6.973  11.559  0.2111  0.2416  0.1136
 3515SOL    HW111986   3.381   6.911  11.522  0.2882  0.8516 -0.8280
 3515SOL    HW211987   3.358   7.004  11.640  0.9034  0.2649 -0.2320
 3516SOL     OW11988   1.860   4.058   4.381 -0.4659  0.3660  0.3940
 3516SOL    HW111989   1.904   4.032   4.300 -1.0491  0.0969  0.1634
 3516SOL    HW211990   1.815   3.979   4.411 -0.0101  0.3791  1.1443
 3517SOL     OW11991   7.357   2.234   5.427  0.0501 -0.5032 -0.0742
 3517SOL    HW111992   7.294   2.249   5.357 -1.1554 -0.8605  0.9002
 3517SOL    HW211993   7.341   2.144   5.455 -0.4772  0.0755  1.6022
 3518SOL     OW11994   4.574   2.286   1.009  0.5891 -0.1048  0.6897
 3518SOL    HW111995   4.594   2.193   1.020  0.0403 -0.2288  0.6485
 3518SOL    HW211996   4.497   2.288   0.952 -0.2639  0.3176  1.8230
 3519SOL     OW11997   1.288   7.157   2.834  0.2609  0.6002  0.1247
 3519SOL    HW111998   1.366   7.111   2.804  0.0798  1.0108 -1.0266
 3519SOL    HW211999   1.321   7.222   2.896  0.6994  0.0501  0.4833
 3520SOL     OW12000   7.845   7.559   3.194 -0.0114 -0.0863  0.1489
 3520SOL    HW112001   7.840   7.558   3.289  1.2367 -1.1950  0.2301
 3520SOL    HW212002   7.786   7.488   3.166 -1.6798  1.3012 -0.0274
 3521SOL     OW12003   4.170   3.062   1.810 -0.1696 -0.1550 -0.1774
 3521SOL    HW112004   4.110   3.125   1.768 -1.2396 -0.6222  0.6164
 3521SOL    HW212005   4.174   3.090   1.901  2.1504  0.8573 -0.5158
 3522SOL     OW12006   4.818   7.563  10.563  0.1625 -0.2373  0.5555
 3522SOL    HW112007   4.823   7.523  10.476  2.0180  1.0962 -0.0146
 3522SOL    HW212008   4.864   7.501  10.620  3.0195  0.9408 -0.3191
 3523SOL     OW12009   6.870   0.293   1.868 -0.0909 -0.1464 -0.1075
 3523SOL    HW112010   6.928   0.264   1.798 -0.0773  1.4316 -0.7910
 3523SOL    HW212011   6.801   0.342   1.824  1.4944  3.4987  1.0962
 3524SOL     OW12012   1.623   7.604   7.753  0.0252 -0.0046  0.3677
 3524SOL    HW112013   1.583   7.609   7.840 -1.1077  0.4173 -0.1605
 3524SOL    HW212014   1.552   7.576   7.696  0.9339 -0.9910 -0.3182
 3525SOL     OW12015   1.476   5.298   3.176 -0.2881 -0.2644 -0.2375
 3525SOL    HW112016   1.465   5.379   3.126  0.3181  0.2737  0.4775
 3525SOL    HW212017   1.571   5.285   3.180 -0.3520 -0.5896  0.3111
 3526SOL     OW12018   1.081   6.206   0.872 -0.4668  0.1241 -0.2863
 3526SOL    HW112019   1.033   6.284   0.897 -3.8089 -1.5243 -0.9555
 3526SOL    HW212020   1.015   6.147   0.837  1.3727 -4.0288  2.3754
 3527SOL     OW12021   7.778   5.917   9.670 -0.3047  0.5969 -0.3995
 3527SOL    HW112022   7.748   5.841   9.620 -0.4462 -0.4249  1.1685
 3527SOL    HW212023   7.705   5.937   9.729  1.3921 -0.9194  2.3470
 3528SOL     OW12024   6.110   7.213   7.882 -0.0226  0.2115  0.1194
 3528SOL    HW112025   6.066   7.198   7.798  0.9194  0.2923 -0.4036
 3528SOL    HW212026   6.078   7.299   7.910 -1.3487 -0.3770  0.5080
 3529SOL     OW12027   6.530   6.558  11.477  0.1238 -0.1372 -0.2437
 3529SOL    HW112028   6.513   6.484  11.419 -1.6604  0.2242 -0.2410
 3529SOL    HW212029   6.503   6.635  11.426 -1.2946  0.2014  0.9514
 3530SOL     OW12030   5.750   2.697   6.667  0.0322  0.0920 -0.4468
 3530SOL    HW112031   5.782   2.695   6.577 -0.2236 -1.5882 -0.5229
 3530SOL    HW212032   5.716   2.786   6.678 -0.0388  0.2851 -2.0444
 3531SOL     OW12033   5.327   2.435   7.754  0.2981 -0.0939  0.7268
 3531SOL    HW112034   5.265   2.441   7.827 -1.0955 -1.8091 -0.2388
 3531SOL    HW212035   5.349   2.342   7.748  1.6090  0.2398 -0.0606
 3532SOL     OW12036   6.946   7.007   7.505 -0.2203 -0.5654 -0.7400
 3532SOL    HW112037   6.887   6.932   7.491 -0.3910 -0.9843  1.8088
 3532SOL    HW212038   6.888   7.082   7.513 -0.1296 -0.3445 -2.0081
 3533SOL     OW12039   2.254   6.346   6.195 -0.8500  0.5155 -0.3479
 3533SOL    HW112040   2.257   6.396   6.277  0.6957  0.1342 -0.1397
 3533SOL    HW212041   2.190   6.277   6.213  1.1118 -1.0086  1.4847
 3534SOL     OW12042   5.689   7.361   3.559  0.6871 -0.1940 -0.3013
 3534SOL    HW112043   5.631   7.393   3.628  1.1234 -0.7051  0.3130
 3534SOL    HW212044   5.672   7.267   3.554 -1.5990  0.2143 -3.0503
 3535SOL     OW12045   5.754   6.388  11.774  0.0111  0.4056 -0.1520
 3535SOL    HW112046   5.702   6.428  11.844 -0.6870  0.9824 -0.9850
 3535SOL    HW212047   5.734   6.294  11.780  0.6423  0.3255  0.9742
 3536SOL     OW12048   3.434   1.339   9.485 -0.1368 -0.0665  0.2498
 3536SOL    HW112049   3.400   1.251   9.504 -0.9653  0.6035  2.1042
 3536SOL    HW212050   3.362   1.385   9.444 -0.7637  0.6455  2.0693
 3537SOL     OW12051   7.433   0.894   0.124  0.5826  0.4101 -0.4655
 3537SOL    HW112052   7.445   0.802   0.150  2.7501  0.9231  0.5798
 3537SOL    HW212053   7.492   0.943   0.181 -2.8292  2.8767  1.3207
 3538SOL     OW12054   0.805   2.569   9.004  0.1006 -0.5294  0.0032
 3538SOL    HW112055   0.896   2.570   8.975  0.0980 -0.7201 -0.0147
 3538SOL    HW212056   0.755   2.601   8.929  0.1977  0.0525  0.1806
 3539SOL     OW12057   7.172   1.931   9.920 -0.1617 -0.9535  0.1908
 3539SOL    HW112058   7.103   1.872   9.887  0.4365 -0.2267 -2.6892
 3539SOL    HW212059   7.125   2.009   9.948 -0.7021 -1.5141  0.8767
 3540SOL     OW12060   7.846   5.142  11.287 -0.1686 -0.4319 -0.4184
 3540SOL    HW112061   7.893   5.182  11.360 -0.1516  1.6961 -1.5189
 3540SOL    HW212062   7.770   5.100  11.328  0.5753 -0.5121  0.9392
 3541SOL     OW12063   0.271   5.828   9.638 -0.1662 -0.1771 -0.4000
 3541SOL    HW112064   0.200   5.888   9.617  0.2862  0.1045 -1.1735
 3541SOL    HW212065   0.329   5.832   9.561  1.5639  0.9123  0.8699
 3542SOL     OW12066   7.937   5.171   7.477  0.3223  0.8291 -0.1922
 3542SOL    HW112067   7.998   5.242   7.461  0.6306  0.2613 -1.6924
 3542SOL    HW212068   7.993   5.094   7.491 -0.0283  0.3684 -1.2659
 3543SOL     OW12069   1.620   2.800  10.671 -0.2990 -0.2094 -0.4245
 3543SOL    HW112070   1.651   2.711  10.690 -0.5727 -0.2249 -0.0318
 3543SOL    HW212071   1.678   2.857  10.721 -1.6608 -0.2988  1.3829
 3544SOL     OW12072   1.833   0.282   7.798  0.0754 -0.0421  0.0094
 3544SOL    HW112073   1.801   0.369   7.773  0.5783  0.0054 -0.4748
 3544SOL    HW212074   1.754   0.235   7.825  0.0683  1.5276  3.3148
 3545SOL     OW12075   0.784   7.747  10.221 -0.1387 -0.1254 -0.4331
 3545SOL    HW112076   0.879   7.745  10.213 -0.1479  0.4588 -0.7290
 3545SOL    HW212077   0.765   7.828  10.267 -0.2665 -2.1449  3.4219
 3546SOL     OW12078   4.547   0.987   0.692  0.3312 -0.6533  0.6323
 3546SOL    HW112079   4.548   0.949   0.604  1.3292  1.0430 -0.1351
 3546SOL    HW212080   4.574   0.915   0.749  2.1578 -1.1692 -0.7578
 3547SOL     OW12081   6.503   2.348   8.427 -0.0679  0.1549 -0.2112
 3547SOL    HW112082   6.539   2.385   8.508  0.0118  0.7396 -0.5068
 3547SOL    HW212083   6.537   2.259   8.424  0.0890  0.1948  0.2993
 3548SOL     OW12084   1.003   5.985   0.536 -0.7237  0.4017 -0.4836
 3548SOL    HW112085   1.023   5.911   0.595 -0.2473  1.1765  0.3563
 3548SOL    HW212086   0.910   5.976   0.517 -1.0754  0.5545  1.0247
 3549SOL     OW12087   2.414   6.536   9.140 -0.0862  0.1662 -0.4837
 3549SOL    HW112088   2.506   6.511   9.133 -0.1102  0.5139 -3.6109
 3549SOL    HW212089   2.379   6.480   9.209  2.9348  1.7937  2.6830
 3550SOL     OW12090   7.630   3.452   0.877  0.1386  0.1328 -0.3660
 3550SOL    HW112091   7.707   3.499   0.845 -0.2389 -0.7576 -2.7607
 3550SOL    HW212092   7.565   3.461   0.807 -1.5089 -0.2470  1.0299
 3551SOL     OW12093   5.190   5.349   6.252 -0.6059 -0.2479 -0.3749
 3551SOL    HW112094   5.108   5.399   6.259 -0.1775  0.3568  0.5185
 3551SOL    HW212095   5.219   5.337   6.343 -0.1063 -1.1434 -0.6388
 3552SOL     OW12096   6.574   5.825   4.308 -0.2493 -0.0911 -0.0554
 3552SOL    HW112097   6.664   5.859   4.315 -0.5030  0.3421  1.4329
 3552SOL    HW212098   6.549   5.806   4.398 -1.9670  0.5918 -0.3585
 3553SOL     OW12099   3.128   3.734  11.226 -0.3982 -0.1847  0.0470
 3553SOL    HW112100   3.122   3.820  11.269 -0.9331  0.4912 -1.3130
 3553SOL    HW212101   3.044   3.693  11.242 -1.5608  1.0754 -2.3035
 3554SOL     OW12102   0.093   2.377   4.825 -0.7887  0.5881 -0.0088
 3554SOL    HW112103  -0.001   2.362   4.816 -0.5571  0.2774 -3.5116
 3554SOL    HW212104   0.133   2.301   4.783  0.8810  2.1611 -1.4354
 3555SOL     OW12105   1.265   0.246  11.634  0.2381  0.8786 -0.1893
 3555SOL    HW112106   1.328   0.180  11.664  0.3212  1.3634  0.7458
 3555SOL    HW212107   1.203   0.197  11.581  0.5301  0.1173  0.1486
 3556SOL     OW12108   3.099   2.979   1.419 -0.6642  0.2923 -0.1968
 3556SOL    HW112109   3.074   2.888   1.402 -2.4797  0.9501 -1.3698
 3556SOL    HW212110   3.194   2.981   1.407 -0.2715 -1.8019  1.7220
 3557SOL     OW12111   1.494   3.386  11.938  0.0156  0.0158 -0.0334
 3557SOL    HW112112   1.424   3.347  11.886  0.0296  0.8233 -0.6819
 3557SOL    HW212113   1.472   3.479  11.942  0.2758  0.0359  1.0057
 3558SOL     OW12114   2.663   5.499   8.123 -0.3645  0.2031  0.1284
 3558SOL    HW112115   2.628   5.561   8.058 -0.3428 -1.2756 -1.3517
 3558SOL    HW212116   2.709   5.434   8.071  2.4292  0.6557  1.8581
 3559SOL     OW12117   3.360   2.139   7.000  0.4115  0.0580 -0.4996
 3559SOL    HW112118   3.342   2.213   7.058  1.3780  1.8106 -2.2890
 3559SOL    HW212119   3.345   2.174   6.912  1.0070 -1.8623 -1.4223
 3560SOL     OW12120   1.680   1.043  12.105  0.1980 -0.1065  0.2477
 3560SOL    HW112121   1.764   0.998  12.095  0.3183  0.2778 -0.6115
 3560SOL    HW212122   1.704   1.134  12.122 -0.0371  0.0154 -0.0552
 3561SOL     OW12123   0.489   6.380   8.008 -0.2447  0.0946 -0.3103
 3561SOL    HW112124   0.434   6.316   8.053  0.8211 -1.0191 -0.5115
 3561SOL    HW212125   0.562   6.396   8.069 -0.9422  1.8409  0.1212
 3562SOL     OW12126   2.351   7.037   6.619  0.0263  0.0150  0.1023
 3562SOL    HW112127   2.407   7.072   6.550 -3.0526  0.1618 -2.5793
 3562SOL    HW212128   2.337   6.946   6.593 -1.0413  0.0289  0.6138
 3563SOL     OW12129   5.372   6.676   6.795  0.0127  0.5281  1.0040
 3563SOL    HW112130   5.303   6.697   6.858 -0.3731  1.5674  0.2587
 3563SOL    HW212131   5.344   6.718   6.713  0.7771 -0.3216  0.2828
 3564SOL     OW12132   0.190   3.654   2.160 -0.1056 -0.4986  0.1631
 3564SOL    HW112133   0.118   3.600   2.129  0.4070 -1.9648  1.3839
 3564SOL    HW212134   0.256   3.591   2.191  1.0811  0.8100  0.4088
 3565SOL     OW12135   7.959   7.658   0.248  0.0823 -0.4438 -0.3238
 3565SOL    HW112136   7.982   7.569   0.223 -0.6156 -1.1538  1.4420
 3565SOL    HW212137   7.926   7.651   0.338 -2.9579  1.1223 -1.1715
 3566SOL     OW12138   6.791   4.926   1.814  0.5765  0.0827 -0.0560
 3566SOL    HW112139   6.756   4.837   1.805  0.5150 -0.1974  2.2479
 3566SOL    HW212140   6.714   4.980   1.833  0.8647  0.2057  0.8040
 3567SOL     OW12141   6.926   4.491   2.990  0.4847  0.0077 -0.0270
 3567SOL    HW112142   6.883   4.414   3.028  1.6078  0.5858  2.5760
 3567SOL    HW212143   6.865   4.563   3.005  0.7280  0.1603  0.2234
 3568SOL     OW12144   7.769   3.201   6.373  0.5992  0.3559  0.4430
 3568SOL    HW112145   7.726   3.239   6.297  1.6348  0.4799 -0.1095
 3568SOL    HW212146   7.808   3.120   6.341 -0.2903 -0.4096  1.2408
 3569SOL     OW12147   3.916   4.693   3.440  0.6662  0.2329 -0.3969
 3569SOL    HW112148   3.842   4.754   3.440  0.6544  0.2614 -1.9265
 3569SOL    HW212149   3.908   4.646   3.357  3.5918  1.8123 -1.7136
 3570SOL     OW12150   0.134   1.149   1.877 -0.8482 -0.1122 -0.1740
 3570SOL    HW112151   0.126   1.238   1.910 -1.5009 -0.4246  0.5611
 3570SOL    HW212152   0.079   1.097   1.936  1.4580 -1.4041  0.9742
 3571SOL     OW12153   2.989   6.859  10.816 -0.1542 -0.1863 -0.1108
 3571SOL    HW112154   3.006   6.946  10.779 -2.1972  0.4201  0.2392
 3571SOL    HW212155   2.994   6.871  10.911  1.5392 -0.9377 -0.0725
 3572SOL     OW12156   1.815   2.594   0.736 -0.0536 -0.0753 -0.0875
 3572SOL    HW112157   1.863   2.673   0.710  0.0520 -0.5494 -1.3956
 3572SOL    HW212158   1.743   2.627   0.789  0.5398  0.8219  0.1931
 3573SOL     OW12159   0.660   2.464   6.694 -0.3274  0.0744  0.0090
 3573SOL    HW112160   0.698   2.493   6.777  0.1732  0.5370 -0.3757
 3573SOL    HW212161   0.735   2.434   6.643 -0.6600 -0.4217 -0.1967
 3574SOL     OW12162   6.867   2.403   0.841 -0.0444 -0.2072 -0.4099
 3574SOL    HW112163   6.901   2.477   0.791  1.3243  1.3601  2.5880
 3574SOL    HW212164   6.913   2.327   0.805  1.0151  0.8476 -1.3950
 3575SOL     OW12165   6.713   2.471   1.899  0.2179  0.3932 -0.8541
 3575SOL    HW112166   6.662   2.396   1.868  1.3404  0.1888 -2.3436
 3575SOL    HW212167   6.679   2.489   1.987 -0.2791 -1.6808 -0.5619
 3576SOL     OW12168   7.820   3.993   8.900  0.1050  0.1066  0.5972
 3576SOL    HW112169   7.761   4.054   8.945  0.4156 -0.4209  1.7588
 3576SOL    HW212170   7.803   4.007   8.807 -0.8732  0.9215  0.8846
 3577SOL     OW12171   4.957   6.479   3.146 -0.4735  0.1563 -0.4406
 3577SOL    HW112172   4.887   6.528   3.189 -0.0585  0.3943 -0.0322
 3577SOL    HW212173   5.036   6.531   3.162  0.2034 -1.2347  1.0620
 3578SOL     OW12174   1.471   1.470   6.581 -0.5251  0.5196  0.4659
 3578SOL    HW112175   1.480   1.518   6.499  0.6988  0.5113  0.5769
 3578SOL    HW212176   1.458   1.379   6.554 -2.6934  0.8336  0.2584
 3579SOL     OW12177   1.623   6.012   0.143  0.1550 -0.1600  0.1937
 3579SOL    HW112178   1.679   5.962   0.083 -0.5012 -0.2912 -0.3193
 3579SOL    HW212179   1.632   5.967   0.227 -0.6006 -1.3036 -0.3129
 3580SOL     OW12180   2.472   4.776   1.553 -0.7793 -0.2043  0.1419
 3580SOL    HW112181   2.390   4.731   1.532 -0.7180 -0.0761 -0.3860
 3580SOL    HW212182   2.449   4.869   1.554 -0.3707 -0.0626 -1.3520
 3581SOL     OW12183   2.690   7.839  11.066  0.2957 -0.3875 -0.0968
 3581SOL    HW112184   2.692   7.745  11.078  0.4220 -0.4627 -0.6739
 3581SOL    HW212185   2.720   7.853  10.976 -2.3812  0.0074 -1.0442
 3582SOL     OW12186   2.377   1.348   8.437 -0.0943  0.7573  0.1947
 3582SOL    HW112187   2.388   1.319   8.528  0.9189  0.9651  0.1577
 3582SOL    HW212188   2.435   1.424   8.429 -0.7147  1.1809 -0.4347
 3583SOL     OW12189   6.902   0.314  10.752  0.6668  0.6942 -0.4953
 3583SOL    HW112190   6.822   0.324  10.701  0.3759  1.0641  0.0247
 3583SOL    HW212191   6.904   0.222  10.778 -0.5406  1.0763  1.0341
 3584SOL     OW12192   4.083   2.337   5.229 -0.4574 -0.2849 -0.0498
 3584SOL    HW112193   4.004   2.294   5.195  0.6983 -2.6747  0.0459
 3584SOL    HW212194   4.108   2.399   5.161 -1.5449 -0.6414 -0.7970
 3585SOL     OW12195   5.753   6.591   1.684  0.2011 -0.4566  0.3502
 3585SOL    HW112196   5.671   6.542   1.675 -0.5112  1.0293 -3.8224
 3585SOL    HW212197   5.812   6.532   1.729 -1.7417 -3.6426 -0.9519
 3586SOL     OW12198   1.943   4.746  10.455  0.6372 -0.1503  0.3862
 3586SOL    HW112199   1.986   4.824  10.490 -1.9530  1.1366  0.9211
 3586SOL    HW212200   1.894   4.778  10.380  0.3010 -1.4928  0.0085
 3587SOL     OW12201   2.513   6.506   9.610  0.4444 -0.1423 -0.0355
 3587SOL    HW112202   2.472   6.436   9.560  0.7349 -0.9855  0.8678
 3587SOL    HW212203   2.582   6.462   9.660  1.0365  0.8948  0.0795
 3588SOL     OW12204   3.592   2.613   0.536  0.2888  0.3368  0.1783
 3588SOL    HW112205   3.583   2.565   0.453 -1.9694 -1.6440  1.4313
 3588SOL    HW212206   3.555   2.700   0.517 -1.5153 -0.5386 -0.5961
 3589SOL     OW12207   5.189   0.264   0.346  0.7203 -0.0962 -0.0653
 3589SOL    HW112208   5.128   0.333   0.374  2.1128  1.2779 -0.2533
 3589SOL    HW212209   5.178   0.194   0.410 -1.0176  0.1314 -0.0843
 3590SOL     OW12210   2.248   2.348   9.915 -0.5411  0.0498 -0.2883
 3590SOL    HW112211   2.178   2.285   9.905  1.5563 -2.2024 -1.8343
 3590SOL    HW212212   2.262   2.384   9.827  1.5064 -1.0933 -0.5033
 3591SOL     OW12213   2.062   4.713  11.349 -0.7562  0.4489 -0.4096
 3591SOL    HW112214   1.998   4.685  11.285 -0.6484  1.4969 -0.9890
 3591SOL    HW212215   2.021   4.695  11.434  0.2532 -3.7287 -0.6192
 3592SOL     OW12216   6.952   2.883   0.053 -0.0777 -0.2213 -0.1240
 3592SOL    HW112217   7.030   2.850   0.006 -0.0140 -0.5848  0.2305
 3592SOL    HW212218   6.888   2.812   0.044 -0.2463 -0.0680 -0.1158
 3593SOL     OW12219   3.361   3.286   1.700 -0.1128 -0.6182  0.2044
 3593SOL    HW112220   3.372   3.271   1.793  1.0082 -0.4925  0.1084
 3593SOL    HW212221   3.268   3.305   1.689 -0.1095  0.1917  1.4102
 3594SOL     OW12222   6.132   7.901   5.404 -0.3146 -0.1684 -0.3320
 3594SOL    HW112223   6.165   7.959   5.473  0.8118  0.2012 -1.1389
 3594SOL    HW212224   6.142   7.813   5.440 -0.6851  0.0599  0.3556
 3595SOL     OW12225   1.511   0.590   6.281 -0.0304  0.3928  0.2650
 3595SOL    HW112226   1.440   0.527   6.297  0.6589 -1.1149 -1.9481
 3595SOL    HW212227   1.528   0.582   6.187  0.9735  3.0263  0.1526
 3596SOL     OW12228   4.268   6.592   8.328 -0.2719 -0.5224  0.0007
 3596SOL    HW112229   4.305   6.541   8.400 -0.3784 -0.2076  0.2794
 3596SOL    HW212230   4.174   6.575   8.333 -0.4276  0.4158  0.6748
 3597SOL     OW12231   0.190   6.202   4.358 -0.6703  0.3383 -0.4545
 3597SOL    HW112232   0.115   6.255   4.328 -1.8945 -1.4707 -0.7542
 3597SOL    HW212233   0.175   6.116   4.319  1.7806  0.0042 -0.7731
 3598SOL     OW12234   7.951   2.054   9.223  0.1000  0.0361 -0.7635
 3598SOL    HW112235   7.988   2.141   9.238  0.0040  0.0493 -0.6075
 3598SOL    HW212236   7.990   2.000   9.291 -1.4042  0.3917  0.4189
 3599SOL     OW12237   1.025   1.066   5.930  0.2167  0.6007 -0.0862
 3599SOL    HW112238   0.958   1.104   5.873  0.9055  1.0822 -0.5914
 3599SOL    HW212239   1.107   1.107   5.902  0.6899  0.2349  0.7092
 3600SOL     OW12240   3.424   1.181  11.519  0.3347 -0.3564  0.3500
 3600SOL    HW112241   3.437   1.108  11.459 -0.5822 -1.2204  1.1568
 3600SOL    HW212242   3.337   1.216  11.496  0.2936 -0.2249  0.6916
 3601SOL     OW12243   3.876   7.946   0.931  0.1815 -0.3060  0.0329
 3601SOL    HW112244   3.785   7.927   0.953 -0.1750 -0.2677 -1.3293
 3601SOL    HW212245   3.871   8.007   0.858  1.3169  0.0747  0.2495
 3602SOL     OW12246   2.437   0.484  10.789 -0.0142 -0.2482 -0.5446
 3602SOL    HW112247   2.415   0.403  10.835  2.3526 -0.7090 -0.0695
 3602SOL    HW212248   2.425   0.553  10.854  0.4994 -0.5472 -0.1246
 3603SOL     OW12249   1.304   4.312   1.996 -0.4345  0.6557  0.2954
 3603SOL    HW112250   1.290   4.232   2.047  1.9584  0.5271  0.8528
 3603SOL    HW212251   1.240   4.306   1.925  0.7840 -2.6462 -0.6878
 3604SOL     OW12252   4.499   1.428   9.301 -0.4883 -0.8447  0.2295
 3604SOL    HW112253   4.499   1.522   9.284 -1.3426 -0.4788  1.9608
 3604SOL    HW212254   4.444   1.390   9.233  1.3847 -0.3880 -1.6424
 3605SOL     OW12255   0.374   2.900   3.297 -0.5088 -0.1953  0.4241
 3605SOL    HW112256   0.444   2.899   3.233 -0.0378 -1.1562  0.9416
 3605SOL    HW212257   0.396   2.973   3.355 -1.1986  1.0017 -0.7479
 3606SOL     OW12258   0.520   0.614   4.693  0.5637 -0.1358 -0.0355
 3606SOL    HW112259   0.503   0.532   4.740 -0.6572  0.1810  0.1067
 3606SOL    HW212260   0.564   0.586   4.612 -0.6120 -1.0369 -0.3955
 3607SOL     OW12261   6.407   5.105  10.209  1.1327  0.4668 -0.4914
 3607SOL    HW112262   6.502   5.101  10.201  1.0395  0.1806 -1.5503
 3607SOL    HW212263   6.374   5.046  10.141  0.1936  0.6701 -0.2303
 3608SOL     OW12264   4.785   4.380   1.311  0.8226 -0.0672  0.3766
 3608SOL    HW112265   4.773   4.474   1.317  0.5414 -0.1656  1.9082
 3608SOL    HW212266   4.794   4.362   1.217 -2.6192  1.0689 -0.3108
 3609SOL     OW12267   2.304   6.229   8.292  0.1673 -0.0927  0.4259
 3609SOL    HW112268   2.229   6.282   8.320  0.0948  0.4791 -0.8036
 3609SOL    HW212269   2.273   6.183   8.214  0.5521 -1.2113  0.9062
 3610SOL     OW12270   4.268   1.131   7.131 -0.1951 -0.1749 -0.0360
 3610SOL    HW112271   4.227   1.210   7.165  0.9044 -0.0113  1.0002
 3610SOL    HW212272   4.267   1.069   7.204 -0.1677 -0.7772 -0.5302
 3611SOL     OW12273   2.023   5.001  11.616  0.2222 -0.1330  0.0683
 3611SOL    HW112274   2.111   4.973  11.590  0.8386  1.7850 -0.0573
 3611SOL    HW212275   1.993   5.055  11.542 -1.2275 -1.0431 -0.0467
 3612SOL     OW12276   7.256   3.920   4.637 -0.1968  0.5390 -0.0944
 3612SOL    HW112277   7.270   4.015   4.631 -2.1384  0.8089 -0.8284
 3612SOL    HW212278   7.305   3.884   4.562  0.0584  1.0040 -0.1558
 3613SOL     OW12279   5.125   1.591   6.910 -0.1373 -0.0545 -0.2614
 3613SOL    HW112280   5.112   1.511   6.860  0.2293  0.2320 -0.8280
 3613SOL    HW212281   5.159   1.562   6.994  0.6275 -0.4653 -0.6938
 3614SOL     OW12282   1.344   7.639   8.468 -0.3264  0.5210  0.0811
 3614SOL    HW112283   1.251   7.633   8.446 -0.3911 -0.0075  0.4862
 3614SOL    HW212284   1.388   7.592   8.397 -0.3466  0.9800 -0.2389
 3615SOL     OW12285   2.663   0.117   5.396  0.0359 -0.0045  0.0814
 3615SOL    HW112286   2.631   0.184   5.457 -1.8063 -0.3661 -0.4270
 3615SOL    HW212287   2.656   0.158   5.310 -1.1526 -0.8308 -0.2366
 3616SOL     OW12288   3.289   3.198   2.466 -0.0142  0.0660  0.3397
 3616SOL    HW112289   3.293   3.208   2.561  2.4877 -0.9237  0.4040
 3616SOL    HW212290   3.366   3.244   2.433  0.1695 -1.1521 -1.0350
 3617SOL     OW12291   2.666   6.991   2.908  0.1643  0.0535 -0.1384
 3617SOL    HW112292   2.656   6.960   2.818  1.8233  0.2202 -0.4155
 3617SOL    HW212293   2.693   7.082   2.898 -4.1924  1.6709  0.6530
 3618SOL     OW12294   7.761   2.272   2.766 -0.3364  0.4397  0.6528
 3618SOL    HW112295   7.686   2.300   2.819  1.1504 -1.2052  3.8904
 3618SOL    HW212296   7.728   2.196   2.717 -1.0900  0.3663  1.2423
 3619SOL     OW12297   7.942   1.745   5.271 -0.1934 -0.3818  0.2386
 3619SOL    HW112298   7.947   1.742   5.367 -1.5106 -0.7087  0.3143
 3619SOL    HW212299   7.865   1.692   5.250  1.4253 -2.3472 -1.1508
 3620SOL     OW12300   3.782   0.871   4.037  0.4418 -0.3114 -0.9959
 3620SOL    HW112301   3.834   0.806   4.083 -1.8714 -2.0657 -0.6357
 3620SOL    HW212302   3.752   0.826   3.958 -0.0523  0.8131 -1.4809
 3621SOL     OW12303   0.438   6.824  11.801 -0.4460 -0.4725  0.3471
 3621SOL    HW112304   0.476   6.854  11.718  0.0478 -0.0622  0.7101
 3621SOL    HW212305   0.347   6.851  11.797 -0.0378  1.0004  0.6199
 3622SOL     OW12306   5.185   1.848   4.084  0.1738 -0.1457 -0.4287
 3622SOL    HW112307   5.210   1.790   4.011 -0.1450  0.1636 -0.7902
 3622SOL    HW212308   5.115   1.902   4.048 -0.6364 -0.6211  0.4019
 3623SOL     OW12309   6.472   5.433  10.405  0.4507  0.5794 -0.1700
 3623SOL    HW112310   6.393   5.410  10.357  0.4786 -1.9521  0.8762
 3623SOL    HW212311   6.528   5.356  10.398  1.9386  1.4967  0.9442
 3624SOL     OW12312   1.753   1.224  10.455 -0.0592  0.1923  0.0160
 3624SOL    HW112313   1.744   1.238  10.361 -0.1710  3.0359  0.3614
 3624SOL    HW212314   1.663   1.212  10.485 -0.0038 -0.9665 -0.2393
 3625SOL     OW12315   2.719   4.869   1.420 -0.4130  0.5577 -0.2361
 3625SOL    HW112316   2.652   4.823   1.470 -0.2642  1.0124  0.4073
 3625SOL    HW212317   2.781   4.801   1.395  0.6061  0.5554  1.9952
 3626SOL     OW12318   1.020   0.105  11.143 -0.2198 -0.1538 -0.2946
 3626SOL    HW112319   1.084   0.151  11.090 -0.3073 -0.4167 -0.6276
 3626SOL    HW212320   1.031   0.012  11.121  0.0733 -0.3151  0.5036
 3627SOL     OW12321   5.735   0.286   1.707  0.5024  0.2019 -0.1026
 3627SOL    HW112322   5.666   0.238   1.660  0.4748 -0.1710  0.3165
 3627SOL    HW212323   5.794   0.316   1.638  1.2092 -1.5080 -0.3000
 3628SOL     OW12324   3.039   7.557   0.264  0.0868  0.3308  0.2600
 3628SOL    HW112325   3.001   7.596   0.343 -0.0979  0.2926  0.1924
 3628SOL    HW212326   3.076   7.474   0.294 -0.1687  0.2184  0.2698
 3629SOL     OW12327   3.529   7.149   5.562 -0.3779  0.0488 -0.1746
 3629SOL    HW112328   3.474   7.103   5.499  0.9419 -0.4141 -1.0415
 3629SOL    HW212329   3.597   7.086   5.586  0.3265  0.8978  0.1257
 3630SOL     OW12330   4.980   4.740   6.441  0.0215  0.3710 -0.2881
 3630SOL    HW112331   4.964   4.653   6.478  2.5416 -0.4246 -0.8405
 3630SOL    HW212332   4.945   4.735   6.352 -2.3426  0.9149  0.5483
 3631SOL     OW12333   6.207   7.090   8.354 -0.3890 -0.2594  0.1415
 3631SOL    HW112334   6.251   7.125   8.277 -1.0348  0.6642  0.1911
 3631SOL    HW212335   6.159   7.014   8.322 -2.1924  1.1974 -0.7859
 3632SOL     OW12336   3.054   3.276   2.355 -0.5736  0.1974  0.1620
 3632SOL    HW112337   3.057   3.370   2.340 -0.5756  0.2767  0.6676
 3632SOL    HW212338   3.133   3.257   2.405 -0.8656  0.0168  0.5545
 3633SOL     OW12339   3.019   6.783  10.343 -0.1793 -0.3100  0.1977
 3633SOL    HW112340   3.054   6.758  10.429  1.3371 -1.3559 -0.6789
 3633SOL    HW212341   2.953   6.716  10.324 -0.0961 -0.4195  0.2914
 3634SOL     OW12342   6.435   2.917   2.448 -0.3294 -0.9155 -0.7808
 3634SOL    HW112343   6.504   2.850   2.449  0.4157 -0.1554  0.0768
 3634SOL    HW212344   6.394   2.907   2.362 -0.0318 -2.2661 -0.7884
 3635SOL     OW12345   0.404   5.028   9.530  0.0246 -0.1917  0.5750
 3635SOL    HW112346   0.317   5.031   9.490 -0.3057 -1.2813  1.1778
 3635SOL    HW212347   0.457   4.979   9.467  0.2520  0.5908  0.1430
 3636SOL     OW12348   4.446   1.257   6.101  0.2304  0.0606  0.4202
 3636SOL    HW112349   4.509   1.220   6.163  1.3148  2.7540  1.0685
 3636SOL    HW212350   4.380   1.299   6.157 -0.4580 -0.0734 -0.2751
 3637SOL     OW12351   3.095   6.176   0.388 -0.2551 -0.7704  0.0968
 3637SOL    HW112352   3.134   6.260   0.412  0.0598 -0.8586 -0.1044
 3637SOL    HW212353   3.146   6.146   0.312 -0.4594 -1.0724  0.0757
 3638SOL     OW12354   2.281   6.467  10.261 -0.2794  0.0661 -0.2935
 3638SOL    HW112355   2.209   6.465  10.198  0.5890 -0.7711 -1.3016
 3638SOL    HW212356   2.251   6.414  10.334 -0.7695 -0.0952 -0.6126
 3639SOL     OW12357   1.336   5.192   2.699  0.3218 -0.1815 -0.1803
 3639SOL    HW112358   1.306   5.268   2.649  0.7079 -0.1093 -0.3022
 3639SOL    HW212359   1.431   5.198   2.698  0.3430 -0.3157  0.3495
 3640SOL     OW12360   5.842   3.407   0.904 -0.8188 -0.8729  0.2475
 3640SOL    HW112361   5.778   3.478   0.904 -0.4164 -0.4985 -0.4332
 3640SOL    HW212362   5.913   3.440   0.849  1.8527  0.4291  4.0224
 3641SOL     OW12363   7.657   3.969   7.599  0.2131 -0.4338 -0.5347
 3641SOL    HW112364   7.613   3.943   7.518  0.8559 -0.3218 -0.9286
 3641SOL    HW212365   7.634   3.901   7.662 -0.9593 -0.0949 -0.5723
 3642SOL     OW12366   6.835   5.904   0.747  0.3243 -0.3750 -0.7804
 3642SOL    HW112367   6.839   5.863   0.833  0.5469  0.5981 -0.3178
 3642SOL    HW212368   6.742   5.920   0.732  0.4588  2.0031  0.5366
 3643SOL     OW12369   1.356   2.734  10.353  0.0001  0.1293  0.2151
 3643SOL    HW112370   1.365   2.805  10.417 -3.1823  0.6227  0.2461
 3643SOL    HW212371   1.335   2.657  10.406  1.3676 -0.4301  0.0034
 3644SOL     OW12372   7.349   4.253   4.434 -0.7182 -0.1108  0.1787
 3644SOL    HW112373   7.281   4.314   4.463 -0.8959  0.2393 -0.9408
 3644SOL    HW212374   7.300   4.179   4.398 -0.5002 -0.6398  0.9440
 3645SOL     OW12375   3.782   0.107   5.554 -0.2038 -0.5148  0.0346
 3645SOL    HW112376   3.841   0.105   5.630  0.0367  1.0976 -0.0709
 3645SOL    HW212377   3.838   0.086   5.479  0.1269  0.3358  0.0223
 3646SOL     OW12378   5.097   3.816   2.284  0.2922  0.1254 -0.1319
 3646SOL    HW112379   5.067   3.769   2.362 -0.3638  0.2102 -0.3270
 3646SOL    HW212380   5.192   3.804   2.283  0.1422 -1.1394 -0.1491
 3647SOL     OW12381   3.093   6.088  11.071  0.0002  0.4324 -0.1709
 3647SOL    HW112382   3.101   6.038  10.990  0.1077  1.1472 -0.6120
 3647SOL    HW212383   2.998   6.096  11.084 -0.1474 -2.9165  1.8447
 3648SOL     OW12384   3.545   1.065   1.132 -0.0703 -0.0026  0.0756
 3648SOL    HW112385   3.483   0.992   1.131  2.0001 -1.8785 -2.2099
 3648SOL    HW212386   3.535   1.107   1.047 -0.1673  1.5222  0.7978
 3649SOL     OW12387   6.113   3.342   1.342  0.0632 -0.7046  0.1367
 3649SOL    HW112388   6.188   3.374   1.292  0.4610 -0.0218  1.1408
 3649SOL    HW212389   6.096   3.410   1.407  0.7629 -2.3559  2.1777
 3650SOL     OW12390   3.112   5.360   2.994  0.2427  0.4418 -0.7249
 3650SOL    HW112391   3.133   5.266   2.998  0.9670  0.6426  1.1754
 3650SOL    HW212392   3.197   5.403   2.981 -0.2031  0.8382 -2.7282
 3651SOL     OW12393   2.895   6.599  10.899  0.3781 -0.5001  0.0128
 3651SOL    HW112394   2.909   6.550  10.818 -0.4209 -0.5800 -0.0878
 3651SOL    HW212395   2.876   6.688  10.870  2.8756  0.1749  0.2325
 3652SOL     OW12396   0.936   3.098   4.754  0.0757 -0.6058  0.6180
 3652SOL    HW112397   0.944   3.013   4.797  2.3926 -0.4094  0.7052
 3652SOL    HW212398   0.902   3.156   4.822 -3.6825 -1.7743 -0.0075
 3653SOL     OW12399   2.425   5.416   0.353  0.1463  0.1417  0.2010
 3653SOL    HW112400   2.361   5.351   0.380 -1.4087  1.6883  0.4614
 3653SOL    HW212401   2.496   5.366   0.313 -1.7973 -1.5809 -1.2996
 3654SOL     OW12402   7.038   3.721  11.899  0.4476  0.6830  0.4831
 3654SOL    HW112403   7.065   3.789  11.837 -1.3152  0.1830 -0.9127
 3654SOL    HW212404   6.993   3.656  11.845 -0.2319 -0.3012  2.1650
 3655SOL     OW12405   5.270   2.579   2.053  0.5519 -0.2003  0.8149
 3655SOL    HW112406   5.264   2.555   2.145 -1.9080  1.3274  1.1547
 3655SOL    HW212407   5.347   2.636   2.048  1.1790 -0.9427  1.7315
 3656SOL     OW12408   6.350   5.267   9.519  0.1228 -0.3273  0.6523
 3656SOL    HW112409   6.319   5.207   9.450  0.6428 -0.5842  0.6347
 3656SOL    HW212410   6.425   5.310   9.480  0.3668 -0.4102  1.0306
 3657SOL     OW12411   4.926   7.580   4.831  0.5217  0.1335 -0.3924
 3657SOL    HW112412   4.895   7.543   4.749 -0.3425 -0.6492  0.2760
 3657SOL    HW212413   4.868   7.544   4.898  3.0812 -1.7353  0.9873
 3658SOL     OW12414   2.596   3.015   9.462 -0.0065 -0.1219 -0.1394
 3658SOL    HW112415   2.555   3.006   9.375 -2.5580 -0.4161  0.9991
 3658SOL    HW212416   2.579   2.931   9.505  0.2250  0.4096  1.0246
 3659SOL     OW12417   3.747   1.899   3.242 -0.1335 -0.0023 -0.5779
 3659SOL    HW112418   3.768   1.940   3.157  0.6786  2.2088  0.6077
 3659SOL    HW212419   3.735   1.807   3.221 -0.4802  0.5429 -3.1896
 3660SOL     OW12420   7.092   5.933   9.971  0.3060 -0.3670 -0.1420
 3660SOL    HW112421   7.026   5.965  10.032 -0.4735 -0.5450 -0.8698
 3660SOL    HW212422   7.104   6.005   9.909 -0.4532 -0.9493 -0.9904
 3661SOL     OW12423   3.203   6.727   3.927 -0.4501 -0.6249 -0.2009
 3661SOL    HW112424   3.114   6.693   3.917 -0.9230  0.7488 -0.9240
 3661SOL    HW212425   3.203   6.769   4.013 -1.0394  0.8126 -0.8666
 3662SOL     OW12426   2.717   7.912   6.035 -0.0694  0.1038  0.1953
 3662SOL    HW112427   2.647   7.847   6.029  0.6219 -0.6395 -0.0756
 3662SOL    HW212428   2.781   7.873   6.094 -1.1408  2.0106  2.7983
 3663SOL     OW12429   1.837   0.145   9.765 -0.0997  0.1775  0.3913
 3663SOL    HW112430   1.760   0.091   9.750 -0.9410  0.9085  1.8557
 3663SOL    HW212431   1.911   0.085   9.755 -0.8723 -0.6491 -0.5020
 3664SOL     OW12432   4.194   2.586  11.036 -0.3731 -0.5918  1.1493
 3664SOL    HW112433   4.177   2.505  10.988 -0.0461 -0.7422  1.2856
 3664SOL    HW212434   4.261   2.563  11.100  2.5488  0.5583 -1.1990
 3665SOL     OW12435   4.098   5.745   5.445  0.3593 -0.4349 -0.1893
 3665SOL    HW112436   4.084   5.838   5.431 -2.0551 -0.8839 -1.1607
 3665SOL    HW212437   4.192   5.732   5.430  0.3937  1.5136 -2.0585
 3666SOL     OW12438   3.063   7.416  11.310 -0.4033 -0.2985 -0.5735
 3666SOL    HW112439   2.990   7.355  11.296 -1.5514  0.2623  2.3068
 3666SOL    HW212440   3.137   7.359  11.333 -0.7372 -0.7428 -0.5862
 3667SOL     OW12441   0.454   5.509   1.315 -0.3438  0.2192 -0.0679
 3667SOL    HW112442   0.547   5.500   1.298  0.0326  1.1018  1.4121
 3667SOL    HW212443   0.419   5.552   1.237  0.8878  1.9083  0.2657
 3668SOL     OW12444   3.154   0.987   5.619  0.8699  0.0018  0.5979
 3668SOL    HW112445   3.144   0.897   5.650 -0.2519 -0.2936 -0.5562
 3668SOL    HW212446   3.066   1.024   5.625  0.6832  0.0855 -1.6342
 3669SOL     OW12447   6.860   2.294   6.306  0.3829  0.0075 -0.0231
 3669SOL    HW112448   6.827   2.212   6.270  1.5263 -0.2036 -0.6472
 3669SOL    HW212449   6.946   2.270   6.343  0.4925  0.8139  0.2538
 3670SOL     OW12450   2.369   4.738   9.151 -0.2035 -0.5109 -0.3368
 3670SOL    HW112451   2.398   4.827   9.128 -0.1759 -0.3868  0.1533
 3670SOL    HW212452   2.400   4.726   9.241 -0.0119 -1.1060 -0.4827
 3671SOL     OW12453   7.534   0.319   2.520  0.0640 -0.2729  0.4280
 3671SOL    HW112454   7.592   0.273   2.460 -1.1297  0.3401 -1.2795
 3671SOL    HW212455   7.449   0.276   2.510 -1.0430  2.0946 -1.1068
 3672SOL     OW12456   3.507   6.226   2.831 -0.0685 -0.0360  0.2022
 3672SOL    HW112457   3.476   6.141   2.863 -1.4719 -0.0570 -1.1084
 3672SOL    HW212458   3.519   6.214   2.737  1.2915  0.7866  0.2451
 3673SOL     OW12459   0.750   4.450   6.051 -0.2384  0.2278  0.7011
 3673SOL    HW112460   0.680   4.457   6.116  1.1295  0.7054  2.1613
 3673SOL    HW212461   0.830   4.474   6.098  0.4584  3.7088 -1.8089
 3674SOL     OW12462   7.599   6.108  10.283  0.6506  0.2257  0.2083
 3674SOL    HW112463   7.524   6.142  10.333 -0.7545 -2.0942 -0.1841
 3674SOL    HW212464   7.662   6.082  10.350  0.9105  1.6872  0.5644
 3675SOL     OW12465   5.001   4.484  11.416  0.1044  0.0225 -0.3580
 3675SOL    HW112466   5.020   4.499  11.324  1.1150  0.0535 -0.1650
 3675SOL    HW212467   4.937   4.413  11.417 -0.9907  0.9643 -1.1141
 3676SOL     OW12468   5.777   6.325   3.729  0.3203  0.0914 -0.3857
 3676SOL    HW112469   5.870   6.336   3.752  0.1966  1.9059 -0.6223
 3676SOL    HW212470   5.770   6.359   3.640 -0.2987 -1.5742 -1.0132
 3677SOL     OW12471   1.523   3.104   4.745 -0.4125 -0.5794  0.3989
 3677SOL    HW112472   1.483   3.148   4.820 -0.4436 -0.2262  0.1793
 3677SOL    HW212473   1.464   3.031   4.724 -0.0193 -1.1260  1.1789
 3678SOL     OW12474   7.076   1.439   4.371 -0.5252 -0.4302 -0.0603
 3678SOL    HW112475   7.126   1.416   4.292  1.0057  0.3518  0.6438
 3678SOL    HW212476   7.066   1.534   4.366 -1.0230 -0.4567  0.3509
 3679SOL     OW12477   1.315   0.801   7.688 -0.2145 -0.1275  0.1315
 3679SOL    HW112478   1.407   0.826   7.691 -0.1441 -0.4097  2.2759
 3679SOL    HW212479   1.307   0.746   7.610  1.6329 -0.7756  0.3517
 3680SOL     OW12480   5.178   4.310   1.763  0.0211  0.3138 -0.2758
 3680SOL    HW112481   5.095   4.326   1.807  0.9962 -0.3776  1.9368
 3680SOL    HW212482   5.206   4.224   1.793  2.0176  0.9533 -0.1089
 3681SOL     OW12483   1.218   4.091   6.445  0.5221  0.0255  0.0026
 3681SOL    HW112484   1.178   4.041   6.517  0.5606  0.8441  0.6183
 3681SOL    HW212485   1.311   4.069   6.450  0.4870 -0.1168  0.0457
 3682SOL     OW12486   3.998   7.582   3.376  0.3331  0.3936 -0.5987
 3682SOL    HW112487   3.922   7.524   3.370  0.9269 -0.3327 -1.4495
 3682SOL    HW212488   4.070   7.524   3.401  0.4526  1.2225  1.0509
 3683SOL     OW12489   2.884   7.485   6.838  0.5212 -0.7097  0.0559
 3683SOL    HW112490   2.873   7.524   6.751  1.4430 -1.9355 -0.6384
 3683SOL    HW212491   2.979   7.472   6.846  0.5529  0.2402  1.6504
 3684SOL     OW12492   4.513   2.738   9.474 -0.9819 -0.4633  0.7515
 3684SOL    HW112493   4.578   2.791   9.520 -1.6467  1.5288 -0.4668
 3684SOL    HW212494   4.454   2.707   9.543 -1.0412  1.1118  1.4505
 3685SOL     OW12495   5.882   2.794   2.353 -0.3047  0.8366  0.7703
 3685SOL    HW112496   5.924   2.836   2.277  0.7233 -0.3656  0.6526
 3685SOL    HW212497   5.852   2.868   2.406 -0.9308  1.7139 -0.7198
 3686SOL     OW12498   3.117   3.254   7.858  0.7791  0.0483 -0.0463
 3686SOL    HW112499   3.162   3.173   7.835 -0.4238 -0.6021 -0.2105
 3686SOL    HW212500   3.037   3.225   7.902  0.6516  1.1717  0.5062
 3687SOL     OW12501   0.776   2.661   5.726  0.2301 -0.4693  0.7452
 3687SOL    HW112502   0.782   2.659   5.821 -2.2762 -1.1766  0.9834
 3687SOL    HW212503   0.742   2.574   5.703  1.3224 -0.5076 -0.8607
 3688SOL     OW12504   2.773   1.888  12.265  0.2276  0.7324 -0.1862
 3688SOL    HW112505   2.725   1.896  12.347 -0.9727  0.9860 -0.8884
 3688SOL    HW212506   2.709   1.909  12.197  0.6427 -1.3257 -1.3088
 3689SOL     OW12507   6.233   0.712   6.248 -0.5570 -0.2490 -0.5059
 3689SOL    HW112508   6.227   0.719   6.343 -1.5877 -0.9221 -0.5028
 3689SOL    HW212509   6.322   0.739   6.227 -0.7971  1.5112  0.4961
 3690SOL     OW12510   0.091   5.064   7.870  0.5351 -0.3734  0.8467
 3690SOL    HW112511   0.146   5.036   7.796  0.8006  0.0585  0.8804
 3690SOL    HW212512   0.071   4.982   7.917 -0.4026 -0.7821 -0.2159
 3691SOL     OW12513   2.001   3.564   4.357 -0.0031  0.0567 -0.2595
 3691SOL    HW112514   2.024   3.556   4.265  2.5912  1.0197  0.2338
 3691SOL    HW212515   2.063   3.628   4.393 -1.7811  0.7450  1.8895
 3692SOL     OW12516   1.218   4.794   2.282 -0.0723  0.8837 -0.6997
 3692SOL    HW112517   1.255   4.706   2.276 -1.5949  0.0929  0.7410
 3692SOL    HW212518   1.256   4.832   2.361 -1.3424  0.5053  0.1307
 3693SOL     OW12519   3.662   2.262  10.910 -0.6817 -0.1017 -0.4569
 3693SOL    HW112520   3.711   2.335  10.872 -0.4000 -0.1233 -0.1351
 3693SOL    HW212521   3.571   2.280  10.887 -0.6419  0.4841 -0.1696
 3694SOL     OW12522   6.695   1.849   8.329  0.1956 -0.2167 -0.6358
 3694SOL    HW112523   6.747   1.771   8.310 -2.2847 -1.6442 -2.2937
 3694SOL    HW212524   6.619   1.816   8.378 -0.8222  1.1541 -1.2045
 3695SOL     OW12525   4.850   6.536   1.299 -0.2404  0.0589  0.2604
 3695SOL    HW112526   4.865   6.452   1.342 -0.8752 -1.0665 -1.6070
 3695SOL    HW212527   4.810   6.591   1.367 -2.5449 -2.0688  0.7563
 3696SOL     OW12528   3.124   7.662   4.824  0.0117  0.1542 -0.1491
 3696SOL    HW112529   3.097   7.626   4.908  0.8321 -0.3905 -0.1079
 3696SOL    HW212530   3.202   7.613   4.801 -0.5746 -0.1640 -1.5507
 3697SOL     OW12531   7.144   3.757   6.279 -0.2010  0.3593  0.7104
 3697SOL    HW112532   7.168   3.665   6.286 -0.2381  0.4533  2.3253
 3697SOL    HW212533   7.185   3.786   6.197 -0.0855 -1.0506  0.2507
 3698SOL     OW12534   0.134   4.391   6.008  0.1018  0.1977  0.3908
 3698SOL    HW112535   0.127   4.306   6.053 -3.2911  0.9580  1.6155
 3698SOL    HW212536   0.141   4.368   5.915  0.6867 -1.4106  0.7968
 3699SOL     OW12537   3.715   6.069   9.590 -0.5992  0.5366 -0.2379
 3699SOL    HW112538   3.692   6.150   9.543 -0.4219 -0.3738 -1.9830
 3699SOL    HW212539   3.638   6.049   9.643 -0.3724  2.2104  0.8168
 3700SOL     OW12540   0.366   0.314   8.156  0.1072 -0.2969 -0.0338
 3700SOL    HW112541   0.287   0.285   8.111  0.0456 -1.0329  0.5319
 3700SOL    HW212542   0.336   0.382   8.216 -0.2659 -1.2258  0.8586
 3701SOL     OW12543   7.408   6.711  10.195 -0.3716  0.1333 -0.0011
 3701SOL    HW112544   7.391   6.795  10.152 -0.1126  0.2769  0.1756
 3701SOL    HW212545   7.337   6.654  10.166 -0.7128  0.5000  0.1165
 3702SOL     OW12546   4.478   4.168   4.127 -0.0368  0.6504 -0.3448
 3702SOL    HW112547   4.431   4.242   4.088 -1.3406 -0.0563 -0.1670
 3702SOL    HW212548   4.420   4.093   4.113 -0.9397  0.4395  3.4480
 3703SOL     OW12549   4.133   7.277   2.705 -0.5953 -0.6582  0.5409
 3703SOL    HW112550   4.134   7.275   2.800 -0.0268 -1.9984  0.5303
 3703SOL    HW212551   4.198   7.212   2.679 -0.8840 -0.4577 -0.7590
 3704SOL     OW12552   1.873   0.270   6.984 -0.6001  0.4323 -0.1769
 3704SOL    HW112553   1.873   0.272   6.888  0.8258 -1.1701 -0.2626
 3704SOL    HW212554   1.811   0.200   7.006 -1.0891  0.9447  0.0914
 3705SOL     OW12555   7.053   3.957   0.990  0.7941 -0.8155 -0.3208
 3705SOL    HW112556   6.977   4.015   0.986  0.2733 -1.3262  1.2783
 3705SOL    HW212557   7.122   4.009   1.030  1.7152  0.0035 -2.7533
 3706SOL     OW12558   2.351   4.256   9.034 -0.2558 -0.2509  0.4700
 3706SOL    HW112559   2.399   4.185   9.077  1.9405  2.1422  2.2960
 3706SOL    HW212560   2.398   4.270   8.951 -1.1911 -1.3717 -0.2816
 3707SOL     OW12561   5.753   4.803   2.996 -0.1263 -0.3903  0.4403
 3707SOL    HW112562   5.733   4.877   2.938 -2.5263 -0.3547  1.1913
 3707SOL    HW212563   5.698   4.819   3.073  1.4663 -1.4880  1.8526
 3708SOL     OW12564   4.630   7.304   6.075 -0.5603  0.2901 -0.0964
 3708SOL    HW112565   4.682   7.330   6.150 -1.5387 -1.4054  1.2486
 3708SOL    HW212566   4.687   7.248   6.023  0.3843  2.1129 -1.1195
 3709SOL     OW12567   4.225   6.777   7.784  0.3700  0.3553 -0.1379
 3709SOL    HW112568   4.174   6.726   7.847  4.0980 -0.3286  2.7196
 3709SOL    HW212569   4.252   6.715   7.717  2.4769 -0.9482  1.7671
 3710SOL     OW12570   2.484   3.693   1.626 -0.0118  0.1975 -0.0397
 3710SOL    HW112571   2.449   3.626   1.568  1.4169 -0.2638 -0.4149
 3710SOL    HW212572   2.408   3.746   1.651 -1.5771 -2.7210  1.8830
 3711SOL     OW12573   2.351   3.064   6.036  0.5552 -0.5774  0.6173
 3711SOL    HW112574   2.391   2.985   6.073  1.5210  0.1161  1.1100
 3711SOL    HW212575   2.421   3.129   6.040 -0.1933  0.2657  0.1043
 3712SOL     OW12576   2.101   3.002   5.930  0.5310  0.5208  0.3696
 3712SOL    HW112577   2.094   2.918   5.886 -0.1685 -0.0485  1.5149
 3712SOL    HW212578   2.191   3.004   5.964  0.9758  0.8359 -0.7890
 3713SOL     OW12579   3.887   6.303   4.546  0.2316  0.2271  0.9891
 3713SOL    HW112580   3.913   6.298   4.454  1.6072 -1.6893  1.4227
 3713SOL    HW212581   3.846   6.218   4.564  0.1287  0.5147  2.1841
 3714SOL     OW12582   2.507   5.564  11.529  0.0623 -0.8395  0.0947
 3714SOL    HW112583   2.415   5.583  11.548  0.2754  0.7655 -0.3157
 3714SOL    HW212584   2.512   5.569  11.433  0.4549 -1.6354  0.0638
 3715SOL     OW12585   3.352   3.404   2.175 -0.3792 -0.1994  0.2129
 3715SOL    HW112586   3.417   3.377   2.240  1.5894 -0.9734 -1.9680
 3715SOL    HW212587   3.379   3.493   2.150  0.3786 -0.8033 -1.2480
 3716SOL     OW12588   0.560   7.000   3.292 -0.3093 -0.2419  0.0551
 3716SOL    HW112589   0.619   7.075   3.282 -0.8052  0.3878  1.5339
 3716SOL    HW212590   0.518   6.990   3.207  0.5584  0.4846 -0.4639
 3717SOL     OW12591   0.261   0.218  10.609 -0.4777  0.3830  1.0349
 3717SOL    HW112592   0.266   0.291  10.547 -0.8416 -0.4302  0.0191
 3717SOL    HW212593   0.195   0.160  10.572 -0.6802 -0.1494  2.1844
 3718SOL     OW12594   7.245   2.785  11.726  0.8331 -0.5897  0.1701
 3718SOL    HW112595   7.181   2.796  11.796  1.0510  0.1950  0.2569
 3718SOL    HW212596   7.328   2.767  11.771  0.8579 -0.6579  0.0978
 3719SOL     OW12597   0.681   7.797   9.939  0.4504  0.6045  0.2027
 3719SOL    HW112598   0.739   7.742   9.886 -0.3667  1.0269 -1.1892
 3719SOL    HW212599   0.646   7.862   9.877 -2.0877 -0.1007  0.7637
 3720SOL     OW12600   4.116   6.390   9.487  0.3928 -0.1375  0.5220
 3720SOL    HW112601   4.191   6.423   9.536 -0.2045 -0.7150  1.8756
 3720SOL    HW212602   4.057   6.465   9.478 -0.2947 -0.4257  2.2895
 3721SOL     OW12603   3.564   0.466   6.926  0.3966  0.2664 -0.2085
 3721SOL    HW112604   3.656   0.490   6.936 -0.1714  2.1109  1.1167
 3721SOL    HW212605   3.541   0.498   6.839  0.6527  1.1545  0.0322
 3722SOL     OW12606   3.496   3.637   4.427 -0.0060  0.0933  0.1753
 3722SOL    HW112607   3.545   3.703   4.377 -0.4258 -1.0907 -1.9222
 3722SOL    HW212608   3.564   3.586   4.471  0.7603 -1.1355 -2.2018
 3723SOL     OW12609   7.166   4.402   5.421 -0.6210  0.1111 -0.2306
 3723SOL    HW112610   7.135   4.379   5.334 -1.1781 -0.3780  0.0895
 3723SOL    HW212611   7.179   4.497   5.417  1.2174 -0.1404 -1.4103
 3724SOL     OW12612   4.927   1.864   1.842 -0.0552 -0.4218 -0.2477
 3724SOL    HW112613   4.955   1.780   1.878 -0.5746 -0.7931 -0.6980
 3724SOL    HW212614   5.008   1.908   1.819  0.1935 -1.1860 -0.8616
 3725SOL     OW12615   4.085   1.947   9.097  0.1120 -0.2459  0.0674
 3725SOL    HW112616   4.048   1.978   9.180 -0.9472 -2.5617  0.5767
 3725SOL    HW212617   4.168   1.993   9.088  0.9624 -0.9047  3.1799
 3726SOL     OW12618   0.067   2.072   5.749 -0.2250 -0.3975 -0.6034
 3726SOL    HW112619   0.007   2.059   5.675 -0.6559  2.6832 -0.9529
 3726SOL    HW212620   0.154   2.077   5.708 -0.1197 -1.3427 -0.5252
 3727SOL     OW12621   2.391   1.937   2.492  0.3808  0.1161 -0.0650
 3727SOL    HW112622   2.394   2.013   2.549 -0.7240 -0.6543  1.0801
 3727SOL    HW212623   2.459   1.879   2.526 -0.2817 -0.3455  0.5135
 3728SOL     OW12624   5.311   2.122   4.194  0.1765  0.0736  0.0558
 3728SOL    HW112625   5.331   2.182   4.266  2.2133 -2.5946  1.9500
 3728SOL    HW212626   5.283   2.042   4.238 -1.4615 -0.7443 -2.3004
 3729SOL     OW12627   7.777   7.640   9.902 -0.3707  0.3679 -0.6259
 3729SOL    HW112628   7.812   7.681   9.823 -0.4208  1.3211 -0.1619
 3729SOL    HW212629   7.689   7.677   9.911 -0.1713  0.6550  0.1682
 3730SOL     OW12630   2.857   3.275  10.806 -0.1086  0.2236  0.0040
 3730SOL    HW112631   2.812   3.219  10.743  1.1428  0.7442 -1.4268
 3730SOL    HW212632   2.930   3.313  10.756  0.5248  1.1986  1.5947
 3731SOL     OW12633   5.221   1.930   2.737 -0.3712  0.6775 -0.5300
 3731SOL    HW112634   5.250   1.934   2.828 -0.4128 -0.3022 -0.4560
 3731SOL    HW212635   5.208   1.836   2.721  0.4923  0.7569 -1.8100
 3732SOL     OW12636   2.932   0.090   8.986  0.3982  0.0179 -0.2514
 3732SOL    HW112637   3.007   0.117   8.932  2.0130  0.3305  1.9675
 3732SOL    HW212638   2.882   0.031   8.930  2.6680 -0.7378 -1.6508
 3733SOL     OW12639   0.206   5.295   7.215  0.3160 -0.7809  0.1057
 3733SOL    HW112640   0.294   5.300   7.179  0.4453  0.1069  0.5059
 3733SOL    HW212641   0.210   5.345   7.296 -0.6731 -0.2820 -0.1277
 3734SOL     OW12642   4.071   5.428   9.028  0.0651  0.0036 -0.0859
 3734SOL    HW112643   4.056   5.356   8.967  2.3190 -1.2937  0.7676
 3734SOL    HW212644   4.051   5.391   9.114  0.6259  0.5644  0.2997
 3735SOL     OW12645   7.090   2.300   6.949  0.2583  0.0548  0.2865
 3735SOL    HW112646   7.184   2.314   6.961  0.0347  1.4048  0.5974
 3735SOL    HW212647   7.050   2.346   7.023 -0.6533 -0.5536  0.1792
 3736SOL     OW12648   7.749   3.395   8.747  0.0748  0.0076 -0.2657
 3736SOL    HW112649   7.746   3.302   8.770  0.6757 -0.1648 -0.8540
 3736SOL    HW212650   7.658   3.424   8.751 -0.1569 -0.6906 -0.4156
 3737SOL     OW12651   4.540   3.385   6.710  0.0103  1.0814 -0.3841
 3737SOL    HW112652   4.505   3.463   6.754 -1.1312  0.0578  0.5811
 3737SOL    HW212653   4.534   3.406   6.617  0.7237  2.5567 -0.1339
 3738SOL     OW12654   0.139   7.741   7.946  0.7019 -0.0125 -0.1030
 3738SOL    HW112655   0.168   7.680   8.013  1.1380 -0.3705 -0.6091
 3738SOL    HW212656   0.079   7.800   7.992 -1.0784 -1.8183  0.0617
 3739SOL     OW12657   5.799   7.325   3.942  0.0982 -0.0984  0.2853
 3739SOL    HW112658   5.744   7.377   4.000 -0.4505 -0.8803  0.4861
 3739SOL    HW212659   5.880   7.313   3.990 -0.5373 -1.1712  1.1430
 3740SOL     OW12660   6.714   5.966   9.211  0.0678  0.2798  0.7611
 3740SOL    HW112661   6.794   5.914   9.201 -1.2087 -1.7145  0.3562
 3740SOL    HW212662   6.688   5.954   9.302  0.1883  0.8961  0.8841
 3741SOL     OW12663   6.102   5.901   8.128  0.2327  0.4659 -0.0630
 3741SOL    HW112664   6.161   5.879   8.056 -0.9272  0.3669 -1.0294
 3741SOL    HW212665   6.079   5.993   8.113 -0.8457  0.1509 -0.4723
 3742SOL     OW12666   7.802   7.844   1.597  0.0305  0.1946  0.4113
 3742SOL    HW112667   7.885   7.818   1.636 -0.2006 -0.4285  0.5059
 3742SOL    HW212668   7.809   7.938   1.585  0.4460  0.2695  1.1677
 3743SOL     OW12669   4.604   4.275   8.151 -0.2296  0.0152  0.0491
 3743SOL    HW112670   4.626   4.367   8.143 -1.1258  0.2516  0.1330
 3743SOL    HW212671   4.532   4.262   8.089 -1.4195 -0.1453  1.4071
 3744SOL     OW12672   7.272   0.131   4.138  0.1823 -0.6502 -0.5319
 3744SOL    HW112673   7.341   0.084   4.186  1.3455 -0.5106 -1.9940
 3744SOL    HW212674   7.312   0.214   4.114 -0.8517 -0.1519 -0.5531
 3745SOL     OW12675   4.886   7.653   1.572  0.2281  0.1522 -0.1048
 3745SOL    HW112676   4.890   7.724   1.508  2.7118 -1.5801 -2.0426
 3745SOL    HW212677   4.935   7.581   1.532  1.0043 -1.4248  3.3259
 3746SOL     OW12678   6.750   6.107   4.405 -0.6629  0.1773 -0.0388
 3746SOL    HW112679   6.711   6.097   4.318 -0.6235 -0.2939 -0.0064
 3746SOL    HW212680   6.679   6.137   4.461 -1.1928 -1.4327  0.1944
 3747SOL     OW12681   2.287   1.692   2.794 -0.5072  0.2645 -0.3555
 3747SOL    HW112682   2.329   1.773   2.824 -0.1374  0.2074 -0.7111
 3747SOL    HW212683   2.358   1.628   2.795 -0.7298  0.0198 -0.3766
 3748SOL     OW12684   5.731   3.224   2.022  0.5612  0.4978 -0.0544
 3748SOL    HW112685   5.675   3.290   1.981  0.9431  0.6385 -0.3538
 3748SOL    HW212686   5.815   3.233   1.978  0.1050 -1.4565 -1.4671
 3749SOL     OW12687   0.952   0.358  10.425 -0.3468 -0.4306 -0.0377
 3749SOL    HW112688   0.906   0.414  10.362  1.3001  1.7228  0.5718
 3749SOL    HW212689   0.974   0.279  10.375 -0.7277  0.4139 -1.5996
 3750SOL     OW12690   5.731   3.666   8.533 -0.2679 -0.0175  0.3089
 3750SOL    HW112691   5.791   3.739   8.518  0.6684 -0.9648 -0.8336
 3750SOL    HW212692   5.737   3.614   8.453 -0.9905 -1.2819  1.0428
 3751SOL     OW12693   3.546   1.995   7.311 -0.1963 -0.5861 -0.3019
 3751SOL    HW112694   3.629   2.031   7.342 -1.1697  1.8828 -0.3783
 3751SOL    HW212695   3.565   1.967   7.221  0.5467 -0.0531 -0.3217
 3752SOL     OW12696   7.357   2.158  10.300  0.4820 -0.8193  0.6790
 3752SOL    HW112697   7.271   2.178  10.262  1.2074 -1.0687 -1.1995
 3752SOL    HW212698   7.386   2.079  10.255  1.8525 -0.5361  1.0122
 3753SOL     OW12699   6.444   5.478   1.542 -0.2707  0.1674 -0.0767
 3753SOL    HW112700   6.398   5.464   1.459  1.1406  0.9018 -1.0273
 3753SOL    HW212701   6.496   5.398   1.555  1.1104  0.8731 -1.0163
 3754SOL     OW12702   3.371   1.447   7.664 -0.3219  0.3785 -0.9350
 3754SOL    HW112703   3.449   1.457   7.720  0.5045  0.0442 -1.9967
 3754SOL    HW212704   3.342   1.537   7.647  0.9065  0.6101 -1.9680
 3755SOL     OW12705   0.151   2.093   4.789  0.5685 -0.1644 -0.2843
 3755SOL    HW112706   0.214   2.072   4.858  0.0011 -0.5744  0.1150
 3755SOL    HW212707   0.192   2.060   4.708 -0.4174 -3.2618  0.3429
 3756SOL     OW12708   6.617   3.093   9.115 -0.0574 -0.7838  0.1425
 3756SOL    HW112709   6.548   3.141   9.068  1.1245  0.1427 -0.7165
 3756SOL    HW212710   6.610   3.003   9.082 -0.8100 -0.6926  0.0287
 3757SOL     OW12711   0.037   4.098   7.170  0.2806  0.0682  0.0257
 3757SOL    HW112712   0.017   4.136   7.255  0.9329  1.2719 -0.3268
 3757SOL    HW212713   0.081   4.169   7.122  0.3590 -0.7336 -1.1365
 3758SOL     OW12714   1.019   3.389  10.287  0.1040  0.0643  0.2160
 3758SOL    HW112715   1.100   3.414  10.332  0.2829 -0.3648  0.1381
 3758SOL    HW212716   1.047   3.329  10.218 -0.3074 -0.2827  0.3430
 3759SOL     OW12717   7.391   4.713   8.143  0.4303 -0.4772 -0.0706
 3759SOL    HW112718   7.465   4.770   8.123  0.4197 -0.7723 -1.0029
 3759SOL    HW212719   7.420   4.626   8.115 -0.0093 -0.7175  0.2094
 3760SOL     OW12720   7.697   3.783   4.335  0.3635  0.5632  0.2127
 3760SOL    HW112721   7.620   3.828   4.368 -0.4539 -1.2933  0.9888
 3760SOL    HW212722   7.770   3.842   4.354 -0.8903  2.7688 -1.3157
 3761SOL     OW12723   6.343   2.884   9.016 -0.2189  0.2667  0.2186
 3761SOL    HW112724   6.374   2.797   9.041 -0.4504 -0.1185 -0.7855
 3761SOL    HW212725   6.311   2.922   9.098  0.3703 -0.3860  0.7643
 3762SOL     OW12726   4.588   6.118   6.842 -0.0025 -0.4665 -0.8773
 3762SOL    HW112727   4.532   6.156   6.774 -0.6643 -1.4431 -0.9063
 3762SOL    HW212728   4.677   6.130   6.810 -0.1691  1.2705 -0.7509
 3763SOL     OW12729   6.486   7.264   9.834  0.1444 -0.0969 -0.1964
 3763SOL    HW112730   6.462   7.189   9.779  2.4497 -1.2717  0.2281
 3763SOL    HW212731   6.547   7.315   9.780  0.8461 -0.1507  0.5129
 3764SOL     OW12732   1.030   7.303   5.198 -0.6267  0.3140 -0.3507
 3764SOL    HW112733   0.954   7.263   5.156  0.2474 -0.3208 -1.3729
 3764SOL    HW212734   1.042   7.254   5.279  0.3325 -1.4435 -1.5082
 3765SOL     OW12735   5.462   3.871  10.794  0.1613 -0.1543  0.3078
 3765SOL    HW112736   5.465   3.967  10.787 -0.0213 -0.2416 -1.6409
 3765SOL    HW212737   5.386   3.853  10.849 -1.0817  0.8122 -1.0125
 3766SOL     OW12738   6.488   0.918  11.271 -0.5117  0.5607  0.1612
 3766SOL    HW112739   6.560   0.859  11.292 -1.1090  0.0315  0.7257
 3766SOL    HW212740   6.432   0.867  11.213  0.0490  1.3026 -1.0876
 3767SOL     OW12741   7.631   1.240   4.935  0.2216  0.2599 -0.3442
 3767SOL    HW112742   7.665   1.329   4.928  0.1562  0.2109 -1.6145
 3767SOL    HW212743   7.648   1.214   5.025  1.5527  1.0332 -0.3464
 3768SOL     OW12744   5.248   4.693   0.155  0.3109  0.1137 -0.2344
 3768SOL    HW112745   5.284   4.766   0.205  0.2108  1.4554 -2.0553
 3768SOL    HW212746   5.324   4.653   0.113  0.0934  0.8202 -1.3307
 3769SOL     OW12747   2.056   3.480   9.168  0.4341 -0.2880 -0.1740
 3769SOL    HW112748   2.131   3.430   9.199  0.6117 -0.3784 -0.7518
 3769SOL    HW212749   2.080   3.508   9.080 -0.6818 -1.3276 -0.8376
 3770SOL     OW12750   7.302   2.749   9.316  0.2776  0.3936  0.2558
 3770SOL    HW112751   7.281   2.793   9.398  1.0380 -0.2231  0.7920
 3770SOL    HW212752   7.300   2.656   9.336  2.1558  0.2637  0.0294
 3771SOL     OW12753   1.400   7.573   4.184  0.0933  0.0934  0.1009
 3771SOL    HW112754   1.370   7.580   4.094 -2.2983 -0.5619  0.7603
 3771SOL    HW212755   1.458   7.498   4.185  0.5348  0.4081 -0.9611
 3772SOL     OW12756   0.173   1.140   1.057 -0.0272 -0.3561 -0.1459
 3772SOL    HW112757   0.094   1.176   1.095  0.1374 -0.1588  0.0098
 3772SOL    HW212758   0.222   1.216   1.025  0.9820 -0.2832  1.4392
 3773SOL     OW12759   1.479   2.791   9.024  0.3841 -0.1652 -0.0223
 3773SOL    HW112760   1.526   2.782   8.941 -0.2555 -1.4871 -0.2668
 3773SOL    HW212761   1.452   2.883   9.026  1.0707  0.0733 -0.9070
 3774SOL     OW12762   4.507   0.058   1.854 -0.1485 -0.1885  0.0683
 3774SOL    HW112763   4.577   0.007   1.814  0.6235 -2.4250  3.7743
 3774SOL    HW212764   4.552   0.125   1.906 -1.0459  1.5961 -1.3217
 3775SOL     OW12765   1.767   2.612   5.097 -0.6008  0.0934  0.0149
 3775SOL    HW112766   1.717   2.689   5.071 -0.9687 -0.8571 -2.3136
 3775SOL    HW212767   1.859   2.639   5.089 -0.7266  0.3027 -0.8158
 3776SOL     OW12768   0.107   6.724   0.989  0.5094 -0.2827  0.2029
 3776SOL    HW112769   0.014   6.744   1.001  0.5858 -0.1997  0.6448
 3776SOL    HW212770   0.153   6.790   1.041  0.8009 -0.6750  0.4479
 3777SOL     OW12771   4.624   2.964   1.009 -0.3565  0.2417  0.1147
 3777SOL    HW112772   4.664   3.049   1.025  1.5960 -0.7390  0.8122
 3777SOL    HW212773   4.668   2.931   0.930  0.3773 -0.9397  0.9920
 3778SOL     OW12774   5.382   0.282   1.420  0.0454  0.8607 -0.0817
 3778SOL    HW112775   5.374   0.348   1.488  0.3838  0.2701  0.5568
 3778SOL    HW212776   5.342   0.204   1.457  0.1367  0.5564 -0.6036
 3779SOL     OW12777   4.231   3.622   0.516  0.4873  0.4719 -0.2360
 3779SOL    HW112778   4.155   3.618   0.457 -0.0904  0.7280  0.4796
 3779SOL    HW212779   4.195   3.601   0.602  1.2533  0.5113  0.0967
 3780SOL     OW12780   0.712   2.831   0.647  0.1973 -1.0174  0.1514
 3780SOL    HW112781   0.791   2.827   0.591  0.5387  2.0453  0.2083
 3780SOL    HW212782   0.744   2.866   0.730 -1.2999  1.6328 -0.2667
 3781SOL     OW12783   1.428   2.005   4.857 -0.6146  0.1783 -0.4717
 3781SOL    HW112784   1.497   1.978   4.917 -2.6864 -0.0642  1.9732
 3781SOL    HW212785   1.468   2.074   4.804  1.8000 -0.7517  0.0136
 3782SOL     OW12786   2.104   2.640   7.146 -0.2054 -0.9135  0.1767
 3782SOL    HW112787   2.039   2.709   7.158 -0.5436 -1.2842  0.5324
 3782SOL    HW212788   2.181   2.670   7.195  0.0933 -0.2276 -0.6805
 3783SOL     OW12789   3.908   6.640   3.722  0.3787  0.0494  0.0038
 3783SOL    HW112790   3.847   6.631   3.796  2.2502  0.2655  1.6614
 3783SOL    HW212791   3.884   6.569   3.663 -0.1373 -1.1875  1.6156
 3784SOL     OW12792   0.820   1.299   9.652 -0.0708 -0.7925 -0.4984
 3784SOL    HW112793   0.822   1.375   9.594  0.3729  0.4227  1.0559
 3784SOL    HW212794   0.912   1.282   9.672 -0.2764 -0.0655  1.2359
 3785SOL     OW12795   6.609   6.366   4.845 -0.0290  0.2528 -0.1610
 3785SOL    HW112796   6.612   6.270   4.843 -1.6806  0.1661 -2.1971
 3785SOL    HW212797   6.527   6.387   4.889 -0.0367  0.6988 -0.3843
 3786SOL     OW12798   2.441   4.617   5.997 -0.0038 -0.2791 -0.9187
 3786SOL    HW112799   2.527   4.660   5.996  0.8764 -1.9419 -2.4967
 3786SOL    HW212800   2.436   4.575   6.083  0.3189  0.5923 -0.4547
 3787SOL     OW12801   6.618   0.420   7.600 -0.0182 -0.2390 -0.2651
 3787SOL    HW112802   6.603   0.436   7.693  0.6355 -0.2879 -0.1459
 3787SOL    HW212803   6.596   0.328   7.588 -0.9944 -0.0034 -0.3556
 3788SOL     OW12804   7.255   3.487   6.312  0.1562  0.3386 -0.1449
 3788SOL    HW112805   7.180   3.428   6.302  2.0246 -1.7859 -3.4808
 3788SOL    HW212806   7.314   3.442   6.371  0.8578 -0.3762 -1.3668
 3789SOL     OW12807   0.050   6.499   6.425  0.3980  0.2074  0.3841
 3789SOL    HW112808   0.002   6.485   6.343 -0.8087  0.6839  0.9839
 3789SOL    HW212809   0.130   6.544   6.398  0.8208 -1.1354 -0.7101
 3790SOL     OW12810   7.017   1.713   4.189 -0.6552  0.6903 -0.5024
 3790SOL    HW112811   7.040   1.805   4.200  1.0643  0.2076  0.2954
 3790SOL    HW212812   7.007   1.701   4.095  2.0241  1.0999 -0.9113
 3791SOL     OW12813   5.693   4.526   2.982  0.4212  0.3058 -0.4371
 3791SOL    HW112814   5.771   4.472   2.971 -0.4380 -0.8824 -0.8779
 3791SOL    HW212815   5.727   4.615   2.990  1.8271 -0.2001 -0.4548
 3792SOL     OW12816   2.763   5.089   3.676  0.4823 -0.1950  0.0387
 3792SOL    HW112817   2.759   5.121   3.586  1.6213  0.8827  0.3369
 3792SOL    HW212818   2.770   4.994   3.668 -2.0558 -0.3651 -0.9198
 3793SOL     OW12819   4.450   6.197  10.897 -0.3590  0.2918  0.7615
 3793SOL    HW112820   4.404   6.134  10.841 -0.8869 -1.2796  2.8349
 3793SOL    HW212821   4.542   6.171  10.890 -0.5104 -0.3923  1.1721
 3794SOL     OW12822   3.739   6.641   3.966 -0.7471 -0.3558  0.0803
 3794SOL    HW112823   3.647   6.620   3.975 -0.1885 -2.7217  0.8119
 3794SOL    HW212824   3.785   6.561   3.989  1.5452  1.0858  0.8965
 3795SOL     OW12825   7.085   0.328  10.991  0.1101  0.0314  0.8034
 3795SOL    HW112826   7.158   0.347  11.050  0.8339 -0.4380  0.0756
 3795SOL    HW212827   7.040   0.253  11.032  0.3510 -0.0218  0.9736
 3796SOL     OW12828   5.384   1.646  10.366 -0.3245 -0.3209 -0.2026
 3796SOL    HW112829   5.297   1.648  10.406 -0.3200  0.5275 -0.2063
 3796SOL    HW212830   5.435   1.708  10.418  0.4347 -1.1920  0.1248
 3797SOL     OW12831   1.647   2.366   2.792 -0.1393  0.1713  0.1786
 3797SOL    HW112832   1.552   2.361   2.790 -0.2034 -0.2912  2.1354
 3797SOL    HW212833   1.671   2.332   2.878  1.9258 -1.5341 -0.9713
 3798SOL     OW12834   6.532   2.548   0.487 -0.1594  0.2758  0.3001
 3798SOL    HW112835   6.585   2.506   0.419  0.2033  0.4538  0.4691
 3798SOL    HW212836   6.596   2.590   0.545 -0.3713 -0.8827  1.4407
 3799SOL     OW12837   2.828   1.430   7.344  0.3363  0.0403 -0.5094
 3799SOL    HW112838   2.777   1.350   7.330 -0.7539  0.6650 -0.2384
 3799SOL    HW212839   2.764   1.501   7.337  1.3159  0.9208 -0.9870
 3800SOL     OW12840   3.276   0.572   7.449 -0.3041  0.0525  0.7883
 3800SOL    HW112841   3.293   0.481   7.427  0.2645  0.0232  1.3275
 3800SOL    HW212842   3.282   0.575   7.544 -1.6318  0.3949  0.8837
 3801SOL     OW12843   5.935   2.301  10.449  0.6753  0.4472  0.2863
 3801SOL    HW112844   5.921   2.206  10.454  0.7050  0.4302  0.0517
 3801SOL    HW212845   5.893   2.336  10.527 -0.3131  0.3540 -0.1935
 3802SOL     OW12846   7.459   2.669   1.865 -0.3308  0.0139 -0.6386
 3802SOL    HW112847   7.408   2.688   1.944  4.2600  1.5961  2.3857
 3802SOL    HW212848   7.460   2.573   1.859 -0.7418 -0.1558  1.3462
 3803SOL     OW12849   4.241   1.010  10.735  0.4097  0.5106 -0.0224
 3803SOL    HW112850   4.237   1.105  10.741  1.0463  0.5816 -0.6256
 3803SOL    HW212851   4.334   0.989  10.747  0.2592 -0.0415  0.2133
 3804SOL     OW12852   0.493   0.519  10.770  0.3135  0.2083  0.6735
 3804SOL    HW112853   0.417   0.525  10.712 -0.7170 -0.1322  1.9624
 3804SOL    HW212854   0.563   0.487  10.713  0.4811  3.7116 -1.3952
 3805SOL     OW12855   3.039   3.267   1.515 -0.8102 -0.6192 -0.7103
 3805SOL    HW112856   2.972   3.329   1.544 -0.5367 -1.3877  1.8077
 3805SOL    HW212857   2.993   3.207   1.457 -1.3931  1.0434 -2.0500
 3806SOL     OW12858   4.674   3.597  11.552  0.4677  0.2119 -0.4231
 3806SOL    HW112859   4.690   3.625  11.462  0.8733  1.2771 -0.0401
 3806SOL    HW212860   4.728   3.656  11.605 -2.4519  1.9932  0.7545
 3807SOL     OW12861   7.418   0.502   6.830  0.2866  0.4476  0.0606
 3807SOL    HW112862   7.386   0.585   6.865 -0.3062  0.0666  0.4227
 3807SOL    HW212863   7.404   0.439   6.900  4.0439  0.6822  1.2237
 3808SOL     OW12864   2.644   2.285   0.536  0.0346  0.0431 -0.0766
 3808SOL    HW112865   2.667   2.378   0.545 -1.2089  0.3389  0.2715
 3808SOL    HW212866   2.688   2.242   0.609  1.0948  0.2433 -0.5692
 3809SOL     OW12867   6.853   1.419   7.166  0.1488 -0.2215  0.2271
 3809SOL    HW112868   6.826   1.508   7.140  0.4344 -0.3167 -0.4160
 3809SOL    HW212869   6.948   1.425   7.174  0.1672 -0.4662  0.1838
 3810SOL     OW12870   4.156   0.706   3.089 -0.0917  0.6147  0.2773
 3810SOL    HW112871   4.157   0.613   3.068 -3.9670  0.5189 -0.3171
 3810SOL    HW212872   4.185   0.711   3.180  1.9717 -0.8798 -0.2340
 3811SOL     OW12873   7.300   5.512  10.336  0.8481  0.5024  0.5047
 3811SOL    HW112874   7.261   5.442  10.283  0.7104 -1.0201  2.5055
 3811SOL    HW212875   7.386   5.528  10.296  0.9137 -0.8656  0.0589
 3812SOL     OW12876   7.663   3.741  12.014  0.6359  0.6808 -0.3780
 3812SOL    HW112877   7.622   3.811  12.065 -0.3745 -1.2164  1.5526
 3812SOL    HW212878   7.590   3.694  11.974  1.0708 -0.8919  0.5845
 3813SOL     OW12879   7.874   2.842   5.569 -0.0161 -0.1158  0.4515
 3813SOL    HW112880   7.814   2.803   5.633  1.0112 -1.8849  0.4016
 3813SOL    HW212881   7.942   2.884   5.621  0.5736 -1.1610  0.5514
 3814SOL     OW12882   3.283   5.018   8.788  0.6344  0.1496  0.0020
 3814SOL    HW112883   3.340   4.972   8.850  0.5103  0.5124  0.3908
 3814SOL    HW212884   3.261   4.952   8.722  1.0750 -0.1366  0.1381
 3815SOL     OW12885   3.777   3.882   4.589 -0.2679  0.0562 -0.1366
 3815SOL    HW112886   3.697   3.881   4.640  0.4346 -1.1024  1.0297
 3815SOL    HW212887   3.757   3.832   4.510  0.0308 -2.8276  1.4756
 3816SOL     OW12888   2.056   5.399   0.839  0.2414  0.3774 -0.0906
 3816SOL    HW112889   2.145   5.365   0.826 -0.2576 -1.3120  0.5792
 3816SOL    HW212890   2.003   5.321   0.857 -1.3812  1.3487 -0.4379
 3817SOL     OW12891   4.431   3.042  10.239  0.0195  0.2108 -0.4671
 3817SOL    HW112892   4.443   3.061  10.332 -0.8569  1.5849 -0.5960
 3817SOL    HW212893   4.339   3.016  10.232 -0.1403  0.8993 -1.0513
 3818SOL     OW12894   2.532   7.133  11.166  0.4026  0.0114  0.3985
 3818SOL    HW112895   2.603   7.070  11.157  0.2483 -0.0023 -0.8019
 3818SOL    HW212896   2.557   7.187  11.241  1.0183 -0.8353  0.8185
 3819SOL     OW12897   4.011   1.869  10.285  0.4489  0.1206  0.8847
 3819SOL    HW112898   3.978   1.907  10.203 -0.0735  0.4642  1.2463
 3819SOL    HW212899   3.995   1.937  10.350 -0.9165 -0.8661  1.6363
 3820SOL     OW12900   2.809   6.210   9.479  0.1348 -0.3537  1.1392
 3820SOL    HW112901   2.873   6.140   9.490 -1.8672 -2.2648  1.1633
 3820SOL    HW212902   2.773   6.224   9.566  0.6377  0.8876  1.1734
 3821SOL     OW12903   7.741   0.969   9.613 -0.5691 -0.5182  0.0050
 3821SOL    HW112904   7.761   0.901   9.678  2.3358  0.9926  0.8695
 3821SOL    HW212905   7.770   0.933   9.530 -1.7009 -1.3720 -0.0485
 3822SOL     OW12906   2.745   1.183   9.993  0.6826 -0.4296 -0.5574
 3822SOL    HW112907   2.798   1.181  10.073 -1.6613 -0.0983  1.0950
 3822SOL    HW212908   2.788   1.248   9.938  1.2965  0.7907  1.2642
 3823SOL     OW12909   6.540   6.995   8.163  0.1302  0.5954 -0.3551
 3823SOL    HW112910   6.469   7.059   8.174  0.8097  1.0628  1.7921
 3823SOL    HW212911   6.513   6.941   8.089 -1.8661  1.5276 -0.3573
 3824SOL     OW12912   2.725   7.031   5.919  0.1619 -0.0161  0.0175
 3824SOL    HW112913   2.711   7.126   5.912 -1.9528 -0.3896 -2.3722
 3824SOL    HW212914   2.671   7.004   5.993  2.0975  0.7601  1.8330
 3825SOL     OW12915   6.491   4.894   9.986  0.4446  0.6771 -0.3342
 3825SOL    HW112916   6.549   4.874   9.912 -0.5739 -0.2049 -0.9281
 3825SOL    HW212917   6.527   4.845  10.059  1.1378  1.1047 -0.3860
 3826SOL     OW12918   0.105   2.809   5.320 -0.7916  0.1045  0.8242
 3826SOL    HW112919   0.009   2.808   5.325 -0.7799  1.3710  2.5485
 3826SOL    HW212920   0.125   2.863   5.243 -1.4867  0.4442  0.8713
 3827SOL     OW12921   2.579   7.217   1.797  0.8103 -0.5154 -0.2703
 3827SOL    HW112922   2.634   7.289   1.828 -0.7187  0.5278  0.1362
 3827SOL    HW212923   2.490   7.247   1.811  0.1143 -2.2908 -0.6098
 3828SOL     OW12924   4.225   2.575   6.988 -0.0372  0.1148  0.2641
 3828SOL    HW112925   4.241   2.498   6.934 -0.5198  0.8008 -0.8825
 3828SOL    HW212926   4.279   2.644   6.950 -0.9375  0.8008  0.1802
 3829SOL     OW12927   4.270   5.091   3.416 -0.3236 -0.1561 -0.0091
 3829SOL    HW112928   4.346   5.074   3.360 -0.6384 -0.6736 -0.2858
 3829SOL    HW212929   4.307   5.107   3.502  0.1947  1.0843 -0.4497
 3830SOL     OW12930   0.998   7.378   0.429  0.7178 -0.0592  0.1990
 3830SOL    HW112931   1.093   7.372   0.415  1.0511  1.2540  1.6451
 3830SOL    HW212932   0.974   7.463   0.394 -0.1703 -0.8422 -1.1855
 3831SOL     OW12933   1.888   2.807  10.411  0.3476 -0.4381  0.2081
 3831SOL    HW112934   1.929   2.721  10.419  0.5842 -0.6578 -2.5350
 3831SOL    HW212935   1.797   2.788  10.390 -0.0616  0.0298  1.4792
 3832SOL     OW12936   1.846   1.029   7.449 -0.0177  0.2857  0.0854
 3832SOL    HW112937   1.820   1.114   7.414  0.8230  0.9897  1.1092
 3832SOL    HW212938   1.906   1.049   7.520  0.8707 -1.1914 -0.1887
 3833SOL     OW12939   4.085   3.408  10.341  0.1897 -0.4765 -0.4655
 3833SOL    HW112940   4.165   3.370  10.304 -0.6343 -0.4403 -2.4229
 3833SOL    HW212941   4.111   3.493  10.374  0.8083 -0.0587 -1.9512
 3834SOL     OW12942   3.358   7.503   1.143 -1.1097 -0.5766 -0.2160
 3834SOL    HW112943   3.407   7.435   1.190 -1.2028 -0.8894 -0.5668
 3834SOL    HW212944   3.270   7.467   1.134 -0.9515 -0.7538 -1.1129
 3835SOL     OW12945   4.003   3.267   2.181  0.4920 -0.5026 -0.0061
 3835SOL    HW112946   4.033   3.306   2.263 -2.8295  2.7222 -0.0781
 3835SOL    HW212947   3.981   3.176   2.204  1.4533 -0.2378  2.1446
 3836SOL     OW12948   6.923   5.540  11.432  0.5553  0.7210  0.0513
 3836SOL    HW112949   6.910   5.477  11.361  1.6740  0.7704 -0.2238
 3836SOL    HW212950   6.928   5.486  11.511  0.5994  0.5482 -0.0677
 3837SOL     OW12951   2.769   2.181   3.567 -0.4414  0.0052 -0.6119
 3837SOL    HW112952   2.676   2.180   3.590 -1.1329 -0.1186 -3.1125
 3837SOL    HW212953   2.799   2.092   3.586 -0.5537  0.2904  1.0608
 3838SOL     OW12954   2.984   4.500  12.049  0.2312  0.4790 -0.0074
 3838SOL    HW112955   2.985   4.422  11.994  0.4084  0.1251  0.4886
 3838SOL    HW212956   2.892   4.525  12.054  0.2111  0.4996 -0.4399
 3839SOL     OW12957   2.915   4.920   1.866  0.6535 -0.6639  0.2993
 3839SOL    HW112958   2.867   4.867   1.802 -0.7238  3.0002 -2.0562
 3839SOL    HW212959   3.000   4.936   1.825  0.5042  0.0614  0.2481
 3840SOL     OW12960   5.459   7.253  12.301 -0.0566 -0.0831 -0.1503
 3840SOL    HW112961   5.522   7.313  12.340  0.0775  0.8209 -1.6897
 3840SOL    HW212962   5.391   7.244  12.367  0.1605  1.3755  0.3142
 3841SOL     OW12963   0.300   0.427  11.928 -0.0555  0.0742 -0.1073
 3841SOL    HW112964   0.251   0.456  11.852  0.4466 -0.0004 -0.4676
 3841SOL    HW212965   0.258   0.469  12.002  0.8098  1.9476 -0.6275
 3842SOL     OW12966   2.100   3.585   9.659  0.6118  0.2823 -0.0890
 3842SOL    HW112967   2.105   3.663   9.715 -0.8642  1.6753 -1.7675
 3842SOL    HW212968   2.165   3.600   9.591  1.3338 -0.6644  0.3801
 3843SOL     OW12969   2.285   2.415  11.942 -0.2941  0.5515  0.4761
 3843SOL    HW112970   2.371   2.444  11.909 -0.7458  2.9113  1.1458
 3843SOL    HW212971   2.257   2.487  11.999 -2.3958 -0.5200  0.8592
 3844SOL     OW12972   1.115   5.718  11.738  0.3632  0.6908  0.4004
 3844SOL    HW112973   1.144   5.763  11.817 -0.1320 -0.0943  1.0293
 3844SOL    HW212974   1.067   5.785  11.689 -1.8784  0.4708  2.1323
 3845SOL     OW12975   6.259   4.919   4.968 -0.1336  0.3316  0.0578
 3845SOL    HW112976   6.298   4.971   5.039  0.8593  1.4035 -1.2396
 3845SOL    HW212977   6.180   4.967   4.943 -0.3598  0.0740  0.2655
 3846SOL     OW12978   0.755   6.552   2.573 -0.2813  0.2218 -0.2854
 3846SOL    HW112979   0.745   6.457   2.570  0.3872  0.0862  1.1605
 3846SOL    HW212980   0.711   6.583   2.494 -2.2573 -1.1412  0.2185
 3847SOL     OW12981   0.107   0.934   9.553  0.1498 -0.6310 -0.0414
 3847SOL    HW112982   0.085   0.843   9.533  1.2687 -0.7685 -0.7385
 3847SOL    HW212983   0.102   0.940   9.648  0.1894 -1.4558  0.0160
 3848SOL     OW12984   6.444   5.135   8.051  0.4987  0.4051  0.1601
 3848SOL    HW112985   6.442   5.110   8.143  1.7682  0.9861  0.3660
 3848SOL    HW212986   6.380   5.077   8.009  0.3412 -0.2777  1.2957
 3849SOL     OW12987   2.036   6.252  10.231  0.2911  0.4008 -0.0375
 3849SOL    HW112988   2.014   6.330  10.181 -0.4929  1.3702  1.7391
 3849SOL    HW212989   1.985   6.182  10.191 -0.0516  1.0766 -0.7918
 3850SOL     OW12990   3.874   3.151   4.469 -0.8560 -0.1104 -0.2865
 3850SOL    HW112991   3.836   3.129   4.554 -0.3875 -1.5636 -0.4211
 3850SOL    HW212992   3.960   3.188   4.489 -0.9216 -0.0502 -0.1179
 3851SOL     OW12993   7.511   2.477   0.232  0.7172  0.4821  0.3462
 3851SOL    HW112994   7.550   2.440   0.311  2.2507 -1.4538 -1.2350
 3851SOL    HW212995   7.469   2.403   0.189  1.2550  1.1576 -1.4174
 3852SOL     OW12996   1.961   7.783   9.968  0.0895  0.1065 -0.2086
 3852SOL    HW112997   1.896   7.838  10.012  1.3204  1.6737 -0.2646
 3852SOL    HW212998   1.976   7.825   9.884 -0.2853 -1.3886 -1.0677
 3853SOL     OW12999   6.684   0.888  10.670 -0.2518  0.6453  0.3870
 3853SOL    HW113000   6.672   0.896  10.765 -0.6954  1.1802  0.2915
 3853SOL    HW213001   6.609   0.934  10.633 -0.8413 -0.7830 -0.2274
 3854SOL     OW13002   6.237   3.557  10.395 -0.1290 -0.8169  0.1972
 3854SOL    HW113003   6.291   3.497  10.344  1.7788  1.2171 -0.3319
 3854SOL    HW213004   6.210   3.624  10.332 -1.3733 -0.5635  0.9664
 3855SOL     OW13005   6.229   6.400   6.130 -0.4678  0.6548 -0.4662
 3855SOL    HW113006   6.156   6.402   6.067 -0.8448  1.3423 -0.0117
 3855SOL    HW213007   6.191   6.365   6.210  0.1623 -0.8478 -0.7814
 3856SOL     OW13008   2.544   3.884  11.801  0.2443 -0.6420  0.0334
 3856SOL    HW113009   2.615   3.851  11.855  0.8839 -1.6713 -1.3574
 3856SOL    HW213010   2.555   3.839  11.717 -1.5102 -0.1379 -0.5155
 3857SOL     OW13011   5.186   0.549  10.258 -0.6537 -0.4206 -0.0710
 3857SOL    HW113012   5.155   0.479  10.202 -1.6229 -0.2080  0.1746
 3857SOL    HW213013   5.110   0.607  10.269 -0.0211  0.3937  0.1396
 3858SOL     OW13014   5.593   0.223  11.463  0.1147  0.0831 -0.0167
 3858SOL    HW113015   5.676   0.268  11.475  0.2462  0.2557 -1.3683
 3858SOL    HW213016   5.616   0.133  11.440 -0.0539  0.2307 -0.7810
 3859SOL     OW13017   3.878   7.358   3.894 -0.0535 -0.2415 -0.3844
 3859SOL    HW113018   3.829   7.357   3.812 -1.0402  0.5570  0.1653
 3859SOL    HW213019   3.905   7.268   3.907  0.9844 -0.2243 -2.0719
 3860SOL     OW13020   5.615   0.427   8.483  0.3661 -0.1399  0.2596
 3860SOL    HW113021   5.651   0.473   8.408  2.0494 -0.5824  0.7625
 3860SOL    HW213022   5.561   0.357   8.445  0.5351  0.1467 -0.5219
 3861SOL     OW13023   2.170   1.244  12.369 -0.0047 -0.2704 -0.2096
 3861SOL    HW113024   2.192   1.337  12.376  0.2345 -0.3271 -0.1856
 3861SOL    HW213025   2.137   1.233  12.280 -0.7808 -0.0093  0.0343
 3862SOL     OW13026   5.093   6.850  10.267  0.3099  0.1792 -0.7412
 3862SOL    HW113027   5.164   6.832  10.205  2.1351  1.0402  0.9801
 3862SOL    HW213028   5.133   6.903  10.335 -1.9963  0.6085  0.3961
 3863SOL     OW13029   3.786   5.922   2.438  0.2773  0.5547 -0.0590
 3863SOL    HW113030   3.829   5.869   2.506  2.0389  1.3258 -0.5062
 3863SOL    HW213031   3.697   5.936   2.471  0.7366 -0.0606  1.5400
 3864SOL     OW13032   3.682   7.437  12.133 -0.3628 -0.0866 -0.1503
 3864SOL    HW113033   3.745   7.505  12.108 -1.0097  0.5551 -0.0631
 3864SOL    HW213034   3.623   7.481  12.193 -0.6688 -0.7926  0.0690
 3865SOL     OW13035   4.006   1.886  11.543 -0.0384  0.8454  0.2285
 3865SOL    HW113036   4.000   1.797  11.511  1.3557  0.6005  0.6073
 3865SOL    HW213037   4.033   1.877  11.635  0.1586  1.6507  0.2573
 3866SOL     OW13038   0.665   5.775   5.279 -0.4060  0.0065 -0.1194
 3866SOL    HW113039   0.646   5.682   5.291 -0.3585  0.1473  1.0871
 3866SOL    HW213040   0.713   5.800   5.357 -0.4001  1.0463 -0.4478
 3867SOL     OW13041   7.190   5.275   5.889  0.5369  0.3336  0.7785
 3867SOL    HW113042   7.283   5.296   5.899  0.9949 -0.5242 -1.3384
 3867SOL    HW213043   7.179   5.191   5.934  1.2947 -0.6454 -0.8018
 3868SOL     OW13044   2.940   6.451   1.941  0.0392  0.4879 -0.3867
 3868SOL    HW113045   2.915   6.425   1.852 -0.4028 -2.2858  0.4602
 3868SOL    HW213046   2.889   6.530   1.958 -2.0637 -0.5199 -1.6032
 3869SOL     OW13047   3.480   1.906  10.774 -0.2576  0.6802 -0.0284
 3869SOL    HW113048   3.385   1.899  10.773 -0.1415 -1.0972 -0.3418
 3869SOL    HW213049   3.502   1.908  10.867 -0.6005  1.3566  0.0467
 3870SOL     OW13050   1.262   3.055  11.208  0.1831 -0.7517 -0.2824
 3870SOL    HW113051   1.280   3.004  11.287  0.1203  1.1437  1.0257
 3870SOL    HW213052   1.311   3.137  11.221 -1.2342  0.3201 -1.3901
 3871SOL     OW13053   7.368   3.047   0.231 -0.7582 -0.2799  0.4482
 3871SOL    HW113054   7.406   3.074   0.314  0.8770 -0.3011 -0.2639
 3871SOL    HW213055   7.442   3.015   0.179 -1.8084 -0.7290 -0.8388
 3872SOL     OW13056   5.269   7.496   0.356  0.1617 -0.5902 -0.7356
 3872SOL    HW113057   5.314   7.423   0.398  0.0802  0.1419  0.6622
 3872SOL    HW213058   5.338   7.541   0.308  1.0282  0.5931  1.4862
 3873SOL     OW13059   5.422   3.632   0.661 -0.0564 -0.1166  0.2353
 3873SOL    HW113060   5.426   3.587   0.576  0.7699 -0.9957  0.7136
 3873SOL    HW213061   5.380   3.569   0.719  0.4148  0.0340  0.7429
 3874SOL     OW13062   0.670   6.077   3.392  0.2220  0.0996  0.1259
 3874SOL    HW113063   0.715   6.162   3.393 -0.5649  0.5575 -1.5210
 3874SOL    HW213064   0.586   6.094   3.435 -1.2657  0.9983 -2.8750
 3875SOL     OW13065   0.066   0.354   4.025 -0.2681  0.4418  0.0626
 3875SOL    HW113066   0.101   0.276   4.070  0.3512  0.6597 -0.0335
 3875SOL    HW213067   0.140   0.388   3.976 -0.3291  1.5242  0.6846
 3876SOL     OW13068   7.063   7.088   1.295  0.1610  0.1111 -0.6462
 3876SOL    HW113069   7.085   7.103   1.387 -0.2678  0.6464 -0.6258
 3876SOL    HW213070   7.118   7.014   1.269  0.0363 -0.2667  0.1385
 3877SOL     OW13071   0.701   5.857  11.539 -0.2750 -0.2413 -0.6580
 3877SOL    HW113072   0.789   5.856  11.503  0.3421 -0.6420  0.7994
 3877SOL    HW213073   0.681   5.765  11.557 -0.2824  0.0125  0.6621
 3878SOL     OW13074   5.655   2.364   5.829  0.8933  0.0528  0.3292
 3878SOL    HW113075   5.711   2.384   5.903 -0.5295  1.6169  1.0718
 3878SOL    HW213076   5.671   2.435   5.767 -0.2028  0.5251  0.5530
 3879SOL     OW13077   7.332   1.261   3.785  0.3813 -0.3926 -0.0128
 3879SOL    HW113078   7.335   1.224   3.873  1.4510  0.6642  0.4243
 3879SOL    HW213079   7.422   1.289   3.768  0.3465 -1.2114 -1.7387
 3880SOL     OW13080   0.974   7.883  11.664 -0.5376  0.0542 -0.4044
 3880SOL    HW113081   1.032   7.929  11.603 -1.8363 -0.8258 -2.4025
 3880SOL    HW213082   1.033   7.833  11.720  0.8233  2.5669  0.6045
 3881SOL     OW13083   7.139   7.420   7.398  0.0791  0.3955 -0.0619
 3881SOL    HW113084   7.075   7.457   7.338  0.7675  1.1806 -0.3278
 3881SOL    HW213085   7.099   7.427   7.485 -1.4707 -1.9015 -0.4877
 3882SOL     OW13086   3.677   7.715  10.432 -0.0414 -0.2015  0.2829
 3882SOL    HW113087   3.624   7.647  10.473  1.1490 -2.0448 -1.0430
 3882SOL    HW213088   3.766   7.678  10.430  0.9831  2.0313  0.8562
 3883SOL     OW13089   3.891   5.016   3.695 -0.1919  0.0307  0.1305
 3883SOL    HW113090   3.938   5.046   3.773 -1.0002  1.6805  0.0304
 3883SOL    HW213091   3.878   4.922   3.709  0.3975  0.1447  1.5895
 3884SOL     OW13092   7.800   6.337   3.834 -0.3615 -0.4386  0.4643
 3884SOL    HW113093   7.782   6.424   3.801  0.0837 -0.2055  0.8071
 3884SOL    HW213094   7.723   6.314   3.886 -0.6356 -0.4017  0.0752
 3885SOL     OW13095   5.374   1.884   1.105 -0.3313 -0.0201  0.0213
 3885SOL    HW113096   5.374   1.899   1.011 -1.6985 -0.6592 -0.1042
 3885SOL    HW213097   5.314   1.950   1.140  2.4262  2.2598  0.8743
 3886SOL     OW13098   6.961   3.027  11.496 -0.5433 -0.0541  0.4539
 3886SOL    HW113099   7.003   3.111  11.475  0.3764 -0.3944  0.8580
 3886SOL    HW213100   6.906   3.047  11.571 -1.2401  0.4353 -0.1723
 3887SOL     OW13101   0.247   2.694   4.279 -0.2280 -0.1946  0.3959
 3887SOL    HW113102   0.266   2.600   4.277  0.4703 -0.1079  1.6981
 3887SOL    HW213103   0.216   2.714   4.191 -0.0344 -1.5742 -0.0144
 3888SOL     OW13104   6.798   6.546   7.733 -0.0421  0.0279 -0.2960
 3888SOL    HW113105   6.772   6.562   7.823 -1.9044 -0.6829 -0.6731
 3888SOL    HW213106   6.879   6.495   7.740 -0.2470 -0.1381  0.9613
 3889SOL     OW13107   5.642   7.781   4.777 -0.7659 -0.0220 -0.0162
 3889SOL    HW113108   5.720   7.766   4.830  0.3933 -0.9528 -1.8948
 3889SOL    HW213109   5.668   7.847   4.713 -2.0903  0.9850  0.4346
 3890SOL     OW13110   5.466   5.184  11.736 -0.0070  0.0143 -0.9558
 3890SOL    HW113111   5.487   5.265  11.690  0.4527  0.4861  0.0615
 3890SOL    HW213112   5.385   5.154  11.695 -1.2184  1.9704 -0.1431
 3891SOL     OW13113   1.516   3.689  12.316 -0.0264  0.0383 -0.2724
 3891SOL    HW113114   1.538   3.611  12.266  0.1151 -0.3073  0.3219
 3891SOL    HW213115   1.522   3.662  12.407  1.7113  1.1854  0.0051
 3892SOL     OW13116   2.455   7.213   0.520 -0.3014  0.2586  0.1373
 3892SOL    HW113117   2.510   7.135   0.515  0.1056  0.6031 -1.4358
 3892SOL    HW213118   2.380   7.187   0.574  0.9163 -0.5071  1.5339
 3893SOL     OW13119   3.985   3.874   1.039 -0.4609 -0.0991 -0.1234
 3893SOL    HW113120   3.916   3.901   0.978 -0.3898  1.2083  0.3393
 3893SOL    HW213121   3.946   3.803   1.090 -0.9107 -0.4414 -0.9251
 3894SOL     OW13122   1.601   3.830  10.753 -0.3951  0.4927 -0.3528
 3894SOL    HW113123   1.649   3.865  10.828 -1.3796  1.7948 -0.2986
 3894SOL    HW213124   1.667   3.821  10.684  0.6022 -1.0821  0.7401
 3895SOL     OW13125   0.498   7.112   8.199 -0.4462 -0.5820  0.0297
 3895SOL    HW113126   0.552   7.039   8.168 -0.9980  0.0614 -2.7363
 3895SOL    HW213127   0.433   7.071   8.257 -0.3220 -2.2100 -0.9123
 3896SOL     OW13128   1.461   4.334   6.129 -0.1002 -0.2962  0.0935
 3896SOL    HW113129   1.526   4.294   6.072  0.5485 -0.7402  1.1286
 3896SOL    HW213130   1.488   4.425   6.136  0.1203 -0.3630  0.1152
 3897SOL     OW13131   3.392   4.732   1.534  0.1505 -0.0499 -0.1359
 3897SOL    HW113132   3.417   4.645   1.503 -1.9620 -0.6187 -0.3727
 3897SOL    HW213133   3.424   4.792   1.467 -1.8286 -1.0163 -2.0649
 3898SOL     OW13134   5.735   5.796   2.663 -0.6139  0.2042 -0.0631
 3898SOL    HW113135   5.754   5.817   2.571  0.4269 -0.6465 -0.0574
 3898SOL    HW213136   5.734   5.701   2.666  0.4725  0.2047  1.0178
 3899SOL     OW13137   1.251   3.728   0.759 -0.0278  0.1590  0.4219
 3899SOL    HW113138   1.300   3.749   0.839  0.4176  0.9001 -0.0311
 3899SOL    HW213139   1.172   3.684   0.790  0.1181  0.4758  1.2749
 3900SOL     OW13140   1.396   3.517   4.887  0.7672 -0.0598  0.7027
 3900SOL    HW113141   1.438   3.577   4.949 -1.0522  0.9885  0.9847
 3900SOL    HW213142   1.308   3.552   4.875 -0.2489 -2.4811  0.5663
 3901SOL     OW13143   3.427   1.688   6.351  0.2268  0.1718 -0.2861
 3901SOL    HW113144   3.383   1.685   6.266  0.8605 -0.4283 -0.6049
 3901SOL    HW213145   3.488   1.761   6.344  1.2275 -0.7002 -0.8353
 3902SOL     OW13146   5.708   7.600   7.765 -0.2766  0.8466 -0.2701
 3902SOL    HW113147   5.788   7.645   7.740  0.4450 -0.2116  0.0472
 3902SOL    HW213148   5.652   7.668   7.802  0.1728  1.7321 -1.1785
 3903SOL     OW13149   1.010   3.493   7.087  0.1341 -0.2751 -0.1672
 3903SOL    HW113150   1.071   3.421   7.101  1.0452  0.7049  1.2393
 3903SOL    HW213151   0.936   3.454   7.040  0.6146 -2.1025  0.5109
 3904SOL     OW13152   1.854   2.090   4.739 -0.4751  0.2454 -0.3677
 3904SOL    HW113153   1.811   2.134   4.665 -0.7541 -0.9917 -0.9771
 3904SOL    HW213154   1.805   2.008   4.749  0.3123 -0.1394  0.4266
 3905SOL     OW13155   2.084   0.727   3.827  0.2750  0.4271 -0.2192
 3905SOL    HW113156   2.071   0.757   3.917 -1.1816  0.7150 -0.4913
 3905SOL    HW213157   2.095   0.632   3.835 -0.4770  0.3689  0.2241
 3906SOL     OW13158   7.183   7.762   3.081 -0.4863  0.5064 -0.0082
 3906SOL    HW113159   7.224   7.832   3.132  0.1106 -0.1275  0.4090
 3906SOL    HW213160   7.164   7.693   3.145  1.0476 -0.6557 -0.7254
 3907SOL     OW13161   2.943   1.941  11.340  0.2160  0.1815 -0.1346
 3907SOL    HW113162   2.950   2.026  11.297  1.4751 -0.1704 -0.6864
 3907SOL    HW213163   3.000   1.948  11.417  0.5033 -0.2307 -0.3066
 3908SOL     OW13164   3.804   6.560  10.029  0.2792  0.1605  0.0356
 3908SOL    HW113165   3.776   6.484   9.978  1.0653 -0.5572  0.6544
 3908SOL    HW213166   3.870   6.603   9.975 -2.1672  2.0996 -1.6241
 3909SOL     OW13167   3.060   3.782   0.269  0.3147  0.7349  0.2097
 3909SOL    HW113168   3.094   3.695   0.292 -0.5848 -0.0576 -1.3308
 3909SOL    HW213169   3.135   3.829   0.234  0.6862  0.3947  0.5410
 3910SOL     OW13170   3.823   0.050   2.789  0.2126 -0.2633 -0.8966
 3910SOL    HW113171   3.878   0.095   2.853  0.4661 -0.9050 -0.6580
 3910SOL    HW213172   3.884   0.016   2.724 -0.1185  1.2599 -2.0620
 3911SOL     OW13173   2.483   7.516   3.453  0.4740  0.3155 -0.2654
 3911SOL    HW113174   2.398   7.475   3.470  0.0380  1.4767  0.4466
 3911SOL    HW213175   2.469   7.568   3.374  0.8611 -0.3818 -0.8117
 3912SOL     OW13176   1.538   1.062  11.828 -0.5307  0.0214 -0.3295
 3912SOL    HW113177   1.452   1.102  11.818 -0.3670  0.6264  0.5523
 3912SOL    HW213178   1.556   1.066  11.922 -0.8646 -2.9223 -0.0327
 3913SOL     OW13179   0.562   0.399   4.857 -0.1092  0.5010  0.6739
 3913SOL    HW113180   0.579   0.439   4.942  1.3742  0.4913  0.4020
 3913SOL    HW213181   0.637   0.342   4.841 -1.8837 -2.0607  0.8007
 3914SOL     OW13182   4.839   5.141   5.374  0.0275 -0.1832  0.0566
 3914SOL    HW113183   4.829   5.045   5.370  3.0872 -0.7255  1.8406
 3914SOL    HW213184   4.857   5.159   5.466  1.5757  1.8174 -0.5678
 3915SOL     OW13185   4.095   3.061   5.807  0.4868 -0.1288 -0.4328
 3915SOL    HW113186   4.011   3.042   5.850  0.5862  2.7613  1.2904
 3915SOL    HW213187   4.152   2.989   5.835 -0.1147  0.3899  2.5583
 3916SOL     OW13188   2.598   6.970   5.107 -0.4548  0.8028 -0.2489
 3916SOL    HW113189   2.532   6.961   5.038  0.0979  1.5134 -0.8819
 3916SOL    HW213190   2.564   6.917   5.179 -0.2983 -1.2750 -1.6155
 3917SOL     OW13191   4.791   2.461   2.719  0.1969 -0.1839  0.2123
 3917SOL    HW113192   4.721   2.447   2.782 -0.0945  0.5638  0.0633
 3917SOL    HW213193   4.872   2.463   2.771  0.3976 -3.2317  0.1769
 3918SOL     OW13194   3.243   2.824  12.199 -0.2266 -0.2084  0.4628
 3918SOL    HW113195   3.165   2.774  12.178  0.0400 -0.1937 -0.6208
 3918SOL    HW213196   3.211   2.907  12.233 -0.7264  0.4917 -1.6041
 3919SOL     OW13197   3.516   6.046  10.526 -0.0146  0.3457  0.4139
 3919SOL    HW113198   3.609   6.067  10.516 -0.3419  1.6191 -0.1805
 3919SOL    HW213199   3.503   6.041  10.621  0.7139 -0.1587  0.5020
 3920SOL     OW13200   7.321   7.256   1.999 -0.4886  0.3458 -0.1933
 3920SOL    HW113201   7.296   7.167   2.022 -0.9534 -0.2685 -2.8502
 3920SOL    HW213202   7.239   7.300   1.979 -0.0669  0.4178 -1.9230
 3921SOL     OW13203   3.201   5.941   1.477 -0.3568  0.3991 -0.3584
 3921SOL    HW113204   3.143   6.017   1.477 -0.7118  0.1527  1.1904
 3921SOL    HW213205   3.283   5.974   1.438 -0.6671  1.4432 -0.1568
 3922SOL     OW13206   6.396   2.307  12.105  0.1460 -0.1065 -0.5442
 3922SOL    HW113207   6.415   2.257  12.183 -1.1584  1.3222  0.7613
 3922SOL    HW213208   6.410   2.398  12.131  1.1590  0.3374 -2.4344
 3923SOL     OW13209   0.109   1.657   1.946 -0.4454 -0.1494  0.3284
 3923SOL    HW113210   0.118   1.733   2.003  0.1858  1.6152 -2.0068
 3923SOL    HW213211   0.037   1.607   1.984 -0.9736  1.6711  1.8497
 3924SOL     OW13212   6.257   0.111   7.021 -0.0021 -0.1587  0.5498
 3924SOL    HW113213   6.349   0.099   7.045  0.3336 -0.0312 -0.6423
 3924SOL    HW213214   6.221   0.165   7.091  1.2168  1.1095  0.2292
 3925SOL     OW13215   4.023   5.680   2.421  0.0133  0.3101  0.5171
 3925SOL    HW113216   3.965   5.685   2.497  0.6268 -1.4363  1.1445
 3925SOL    HW213217   3.966   5.695   2.346 -0.6291  1.9385  1.2751
 3926SOL     OW13218   3.314   0.298   4.557 -0.1520  0.2446  0.1946
 3926SOL    HW113219   3.368   0.368   4.592  0.0651 -0.1036  0.5717
 3926SOL    HW213220   3.376   0.240   4.512 -0.2440 -0.0126  0.3917
 3927SOL     OW13221   5.432   2.334  11.486 -0.4436  0.1834 -0.1123
 3927SOL    HW113222   5.525   2.314  11.485  0.2915  3.1130 -0.4195
 3927SOL    HW213223   5.413   2.358  11.576 -0.0132  2.6956 -0.5909
 3928SOL     OW13224   6.645   0.456  11.011  0.0164 -0.7426  1.2322
 3928SOL    HW113225   6.642   0.464  11.107  1.5851 -0.5176  1.2858
 3928SOL    HW213226   6.683   0.370  10.995  0.4787 -0.4728  0.8363
 3929SOL     OW13227   3.984   0.541   6.995 -0.3022  0.3500  0.3838
 3929SOL    HW113228   4.017   0.452   6.984 -0.4222  0.4953 -1.3652
 3929SOL    HW213229   4.048   0.584   7.052  1.0582 -0.1835 -0.6908
 3930SOL     OW13230   0.402   7.328   3.169  0.6656  0.4006 -0.0643
 3930SOL    HW113231   0.494   7.336   3.143  1.0543 -3.7488 -0.7403
 3930SOL    HW213232   0.364   7.272   3.101 -0.9870 -2.2467  2.8130
 3931SOL     OW13233   7.374   4.898   1.719  0.1301 -0.0003 -0.0422
 3931SOL    HW113234   7.344   4.954   1.647 -1.3358  0.1043  0.5947
 3931SOL    HW213235   7.467   4.884   1.703 -0.3022 -0.5635 -2.3301
 3932SOL     OW13236   1.929   0.070  10.614  0.2030 -0.0624  0.3442
 3932SOL    HW113237   1.967   0.045  10.530 -1.1966  1.2135 -0.7263
 3932SOL    HW213238   2.005   0.083  10.671  1.3413  1.0272 -1.3127
 3933SOL     OW13239   7.179   6.260  11.947 -0.4826 -0.0438 -0.2502
 3933SOL    HW113240   7.170   6.185  11.889 -1.4070 -0.1147 -0.0266
 3933SOL    HW213241   7.128   6.237  12.025  0.8595 -0.0103  0.6626
 3934SOL     OW13242   5.498   0.546   2.944  0.6894 -0.4482 -0.5021
 3934SOL    HW113243   5.446   0.624   2.925 -0.7406 -1.5546 -1.2739
 3934SOL    HW213244   5.484   0.531   3.038 -0.3541 -0.6786 -0.6793
 3935SOL     OW13245   2.379   0.434   2.068 -0.1403  0.2042 -0.0195
 3935SOL    HW113246   2.403   0.449   2.159  2.5548 -1.2125 -0.3920
 3935SOL    HW213247   2.455   0.463   2.018 -1.7237  1.3462 -1.8965
 3936SOL     OW13248   3.749   2.413   7.656 -0.6077 -0.0771  0.0174
 3936SOL    HW113249   3.741   2.391   7.748 -1.2352  0.4196  0.0831
 3936SOL    HW213250   3.734   2.507   7.651 -1.0650 -0.1761 -0.6496
 3937SOL     OW13251   6.211   1.704  11.994  0.0276  0.1491  0.1193
 3937SOL    HW113252   6.145   1.773  11.990 -0.8446 -0.5954  1.0793
 3937SOL    HW213253   6.236   1.689  11.902 -0.8015  0.7603 -0.2141
 3938SOL     OW13254   2.411   2.476  12.401  0.1895 -0.5438 -0.0907
 3938SOL    HW113255   2.424   2.467  12.306  0.7613  0.4478 -0.1225
 3938SOL    HW213256   2.454   2.399  12.438  2.3444  0.3607 -0.4997
 3939SOL     OW13257   0.703   5.484   4.137 -0.2404  0.2316  0.2053
 3939SOL    HW113258   0.718   5.393   4.164  1.0399  0.4102  0.1546
 3939SOL    HW213259   0.684   5.478   4.044  0.2859  0.0341  0.1030
 3940SOL     OW13260   2.156   7.824   2.688 -0.3696  0.3511  0.3170
 3940SOL    HW113261   2.108   7.813   2.770 -0.2628  2.1958  0.6795
 3940SOL    HW213262   2.088   7.848   2.624 -0.4061 -0.7397 -0.0611
 3941SOL     OW13263   2.602   6.373   1.928  0.4553 -0.1497 -0.0489
 3941SOL    HW113264   2.661   6.443   1.956 -1.7441  2.4535 -1.4339
 3941SOL    HW213265   2.643   6.337   1.849  0.4855  1.2313 -0.6802
 3942SOL     OW13266   2.387   0.751   8.598 -0.3708 -0.1200 -0.7522
 3942SOL    HW113267   2.434   0.826   8.562 -0.2850  0.9054  1.3396
 3942SOL    HW213268   2.306   0.789   8.632 -0.3447 -0.9869  0.2986
 3943SOL     OW13269   1.727   3.286   5.806 -0.0856 -0.2308 -0.4227
 3943SOL    HW113270   1.709   3.345   5.879 -1.0405 -0.1086 -0.7374
 3943SOL    HW213271   1.742   3.345   5.732 -0.8431 -0.3578 -0.6927
 3944SOL     OW13272   3.360   0.159   8.011 -0.6659  0.1588 -0.2975
 3944SOL    HW113273   3.392   0.248   8.028  0.3820 -0.2417 -0.1320
 3944SOL    HW213274   3.293   0.171   7.944  0.5793  0.9156 -1.4588
 3945SOL     OW13275   3.622   0.702  10.844  0.1426  0.0355 -0.0764
 3945SOL    HW113276   3.598   0.614  10.814  0.0725  0.3360 -0.9089
 3945SOL    HW213277   3.713   0.694  10.872  0.2996 -0.1750 -0.6553
 3946SOL     OW13278   7.675   4.448   1.322 -0.4735 -1.1239 -0.1609
 3946SOL    HW113279   7.671   4.360   1.358  1.9496 -1.1891  0.1753
 3946SOL    HW213280   7.769   4.466   1.315 -0.8969  0.8757 -1.5998
 3947SOL     OW13281   1.541   3.251   6.124 -0.6877  0.0509 -0.8233
 3947SOL    HW113282   1.516   3.163   6.094 -0.6356 -0.3148  0.1895
 3947SOL    HW213283   1.635   3.245   6.140 -0.4063  0.7019 -2.1076
 3948SOL     OW13284   3.468   6.589   8.425 -0.0352 -0.4567  0.2588
 3948SOL    HW113285   3.383   6.547   8.414 -0.7523  1.4229 -2.0254
 3948SOL    HW213286   3.452   6.659   8.489  0.1456 -0.9388  0.8428
 3949SOL     OW13287   5.500   5.335   1.256  0.2898  0.1993  0.2289
 3949SOL    HW113288   5.525   5.263   1.313  1.3012 -0.6705 -1.2496
 3949SOL    HW213289   5.583   5.375   1.229 -0.1197  0.2055 -1.0881
 3950SOL     OW13290   6.360   1.171   6.718 -0.1858  0.2530 -0.6789
 3950SOL    HW113291   6.364   1.082   6.753 -1.1303  0.0304 -1.1099
 3950SOL    HW213292   6.450   1.203   6.722  0.1551 -0.7165 -0.5131
 3951SOL     OW13293   1.170   5.438   8.762 -0.1836  0.0438 -0.2458
 3951SOL    HW113294   1.080   5.420   8.735 -0.1549  0.2806 -0.5081
 3951SOL    HW213295   1.192   5.520   8.717  0.4608 -0.4702 -0.9005
 3952SOL     OW13296   2.159   1.149   4.550  0.3465  0.3516 -0.6933
 3952SOL    HW113297   2.148   1.055   4.557 -0.7332  0.5584  0.8544
 3952SOL    HW213298   2.133   1.170   4.460  1.0697 -0.8532 -1.2153
 3953SOL     OW13299   6.607   6.203   2.760  0.0914 -0.0349 -0.0193
 3953SOL    HW113300   6.634   6.291   2.783  0.5451 -0.4757  1.1885
 3953SOL    HW213301   6.571   6.211   2.671  1.6943  1.0538 -0.6118
 3954SOL     OW13302   6.780   2.954   3.526  0.7874 -0.2166 -0.0644
 3954SOL    HW113303   6.768   3.049   3.514  1.2364  0.1044  1.7357
 3954SOL    HW213304   6.875   2.941   3.525  0.8028 -0.3822  1.2407
 3955SOL     OW13305   0.992   0.677   6.838  0.5319  0.6261 -0.1403
 3955SOL    HW113306   1.088   0.673   6.832  0.4937 -0.4527 -0.2764
 3955SOL    HW213307   0.970   0.614   6.906  0.0132  2.2325  1.2379
 3956SOL     OW13308   7.633   2.775  11.083  0.3421  0.1429  0.7427
 3956SOL    HW113309   7.650   2.718  11.008 -1.4487 -0.9743  1.1273
 3956SOL    HW213310   7.638   2.716  11.158 -1.6389  0.4382  1.1444
 3957SOL     OW13311   3.720   5.502   7.308 -0.2662 -0.3485 -0.3817
 3957SOL    HW113312   3.697   5.426   7.360 -0.9054  0.3983  0.4586
 3957SOL    HW213313   3.778   5.468   7.239  1.3377 -1.2119  1.3267
 3958SOL     OW13314   0.509   2.770   7.373  0.0594 -0.0316 -0.3867
 3958SOL    HW113315   0.527   2.766   7.466  0.5265 -3.0103 -0.5181
 3958SOL    HW213316   0.424   2.727   7.363  0.0074  0.2683 -1.3416
 3959SOL     OW13317   0.028   2.052  11.406 -0.2100 -0.2742 -0.0054
 3959SOL    HW113318  -0.041   2.012  11.353 -0.4217 -1.4100  1.0775
 3959SOL    HW213319   0.105   2.055  11.348 -0.4892 -1.3041 -0.4460
 3960SOL     OW13320   0.265   0.552   0.067  0.1837 -0.2715  0.5127
 3960SOL    HW113321   0.335   0.612   0.038  0.6182  0.1102  2.2510
 3960SOL    HW213322   0.294   0.466   0.037  1.0927 -0.0319  0.6799
 3961SOL     OW13323   4.437   6.694   1.697  0.1894 -0.4690 -0.4095
 3961SOL    HW113324   4.368   6.641   1.657  1.2122 -1.5590 -0.8183
 3961SOL    HW213325   4.480   6.634   1.758  1.1444  0.0084 -0.5968
 3962SOL     OW13326   6.422   1.948  12.399  0.0789  0.0776 -0.1259
 3962SOL    HW113327   6.455   1.905  12.478  0.9400  0.5673 -0.2044
 3962SOL    HW213328   6.343   1.899  12.376 -0.3664  0.1343  1.2164
 3963SOL     OW13329   2.418   6.689   6.097 -0.1167  0.2795  0.3342
 3963SOL    HW113330   2.326   6.712   6.086  0.2261  0.8788 -1.6624
 3963SOL    HW213331   2.417   6.597   6.124 -1.3072  0.3537  0.5752
 3964SOL     OW13332   6.974   7.572  12.064  0.2667  0.0671  0.5399
 3964SOL    HW113333   6.891   7.579  12.111 -0.1726 -0.7177 -0.1029
 3964SOL    HW213334   6.964   7.627  11.987  0.8163  0.9756  1.0958
 3965SOL     OW13335   5.190   3.687   9.076 -0.1004 -0.0985  0.4897
 3965SOL    HW113336   5.220   3.600   9.101 -0.4264 -0.6258 -0.8626
 3965SOL    HW213337   5.258   3.719   9.016 -1.5358 -0.8028 -1.6310
 3966SOL     OW13338   0.712   1.687   6.962 -0.1301 -0.6321  0.0292
 3966SOL    HW113339   0.747   1.622   7.024 -1.7517 -1.4817  0.1023
 3966SOL    HW213340   0.619   1.664   6.953 -0.1931  0.1677 -1.8455
 3967SOL     OW13341   6.222   3.334  11.268 -0.1453  0.2097  0.1932
 3967SOL    HW113342   6.180   3.252  11.294 -0.1997 -0.1770 -1.0612
 3967SOL    HW213343   6.311   3.308  11.244 -0.2605  0.4658 -0.5096
 3968SOL     OW13344   6.070   0.849   7.003 -0.3111  0.2089 -0.0480
 3968SOL    HW113345   6.056   0.777   6.942  0.3733 -0.1577  0.2140
 3968SOL    HW213346   5.983   0.884   7.019 -0.3903  1.2744 -2.3793
 3969SOL     OW13347   1.660   4.872   0.927  0.0251  0.8601 -0.2012
 3969SOL    HW113348   1.736   4.824   0.894  0.4421  0.6383  1.0058
 3969SOL    HW213349   1.594   4.864   0.858  0.0272 -1.6147 -0.0270
 3970SOL     OW13350   2.518   3.760   5.042 -0.1734  0.1727 -0.2811
 3970SOL    HW113351   2.509   3.729   4.952  0.4884 -1.9539  0.3200
 3970SOL    HW213352   2.428   3.760   5.076 -0.3640  0.4939 -0.7694
 3971SOL     OW13353   1.692   4.549   6.342 -0.6811  0.1678 -0.7113
 3971SOL    HW113354   1.639   4.589   6.273  0.2405 -0.5275 -1.8712
 3971SOL    HW213355   1.647   4.572   6.423  0.2810  4.3858 -1.1420
 3972SOL     OW13356   6.401   1.632   3.203  0.1227  0.2458 -0.7544
 3972SOL    HW113357   6.321   1.664   3.162  0.0360  1.8820  0.5693
 3972SOL    HW213358   6.462   1.705   3.198  1.6697 -1.0478 -1.9472
 3973SOL     OW13359   2.292   4.420   5.788  0.5168  0.4109 -0.2777
 3973SOL    HW113360   2.217   4.403   5.732  0.7566 -0.1317 -0.4388
 3973SOL    HW213361   2.359   4.358   5.759  0.1401 -0.9629  1.5712
 3974SOL     OW13362   6.491   7.462   9.475  0.3731  0.0262 -0.0428
 3974SOL    HW113363   6.444   7.384   9.446 -2.8210  1.7776 -0.0094
 3974SOL    HW213364   6.560   7.473   9.410 -0.8551 -1.2658 -1.6779
 3975SOL     OW13365   4.797   5.922  10.938  0.5758 -0.3777 -0.1903
 3975SOL    HW113366   4.856   5.967  10.998 -0.8224  0.2940  0.7384
 3975SOL    HW213367   4.855   5.884  10.872  2.0395  0.1832  0.7064
 3976SOL     OW13368   5.908   1.993   5.287 -0.5798 -0.6991  0.0318
 3976SOL    HW113369   5.872   2.064   5.341 -3.0360 -1.6956 -0.1581
 3976SOL    HW213370   5.909   1.918   5.346 -0.4398 -1.0908 -0.4745
 3977SOL     OW13371   5.384   6.610   8.099 -0.3934 -0.3786 -0.5140
 3977SOL    HW113372   5.312   6.595   8.160  1.3443 -2.3890  1.2129
 3977SOL    HW213373   5.438   6.677   8.141  0.5146 -1.3643 -0.0556
 3978SOL     OW13374   6.192   5.497   9.523 -0.2397  0.0533  0.4415
 3978SOL    HW113375   6.251   5.422   9.519  0.3362  0.4061  1.8436
 3978SOL    HW213376   6.206   5.534   9.609 -2.6570  0.0507  0.9148
 3979SOL     OW13377   0.778   4.179   0.361 -0.1597 -0.2258  0.0349
 3979SOL    HW113378   0.749   4.270   0.367 -0.9104 -0.4305 -0.3674
 3979SOL    HW213379   0.701   4.131   0.330 -0.1950 -1.2333  1.5611
 3980SOL     OW13380   6.686   3.748   1.615  0.0316  0.1371  0.0277
 3980SOL    HW113381   6.618   3.696   1.657  1.4999 -1.5954  0.3935
 3980SOL    HW213382   6.659   3.755   1.523 -1.1515  0.4091  0.3852
 3981SOL     OW13383   0.578   5.563   0.969  0.2006 -0.5575 -0.3610
 3981SOL    HW113384   0.654   5.619   0.951  0.8473 -1.4986 -0.6307
 3981SOL    HW213385   0.527   5.612   1.033  1.2760 -0.1138  0.1841
 3982SOL     OW13386   6.417   3.931   1.938  0.3131  0.2376 -0.2695
 3982SOL    HW113387   6.466   3.850   1.954 -0.2511  0.1239  0.9822
 3982SOL    HW213388   6.377   3.918   1.852 -0.7507 -1.3387  0.4192
 3983SOL     OW13389   1.216   2.861   6.555 -0.2417  0.3564 -0.3259
 3983SOL    HW113390   1.158   2.834   6.627 -1.1028  0.6747 -0.8775
 3983SOL    HW213391   1.241   2.779   6.513  1.5259  0.0340  1.2363
 3984SOL     OW13392   0.722   0.481   0.783  0.2713 -0.2553 -0.1498
 3984SOL    HW113393   0.681   0.400   0.813  0.4085 -0.6713 -1.0313
 3984SOL    HW213394   0.655   0.548   0.797  0.4794 -0.3498  1.4003
 3985SOL     OW13395   6.577   0.454   9.684 -0.2674  0.3028  0.1967
 3985SOL    HW113396   6.665   0.476   9.654  0.0843 -1.3187 -0.0124
 3985SOL    HW213397   6.533   0.539   9.691  1.1188  1.0945 -0.2484
 3986SOL     OW13398   1.694   3.151   2.017  1.0021  0.2735  0.2065
 3986SOL    HW113399   1.713   3.072   1.966  2.6906  0.7651  0.0290
 3986SOL    HW213400   1.599   3.157   2.017  0.8072 -2.0064  0.5948
 3987SOL     OW13401   4.892   4.776  11.238  0.1498  0.0116 -0.5923
 3987SOL    HW113402   4.854   4.695  11.272 -2.0289  0.5752 -1.5522
 3987SOL    HW213403   4.941   4.812  11.313  1.5131 -2.3249 -0.2589
 3988SOL     OW13404   0.095   1.909   6.635  0.4603 -0.0659  0.2634
 3988SOL    HW113405   0.174   1.963   6.637  1.2868 -1.2601  1.6829
 3988SOL    HW213406   0.040   1.950   6.568  1.8179  1.4250 -0.0067
 3989SOL     OW13407   2.855   5.655   1.205  0.3067  0.5805 -0.0750
 3989SOL    HW113408   2.829   5.577   1.255  0.3531 -0.7877 -2.0547
 3989SOL    HW213409   2.784   5.667   1.143  1.4677  0.5591 -1.4564
 3990SOL     OW13410   6.769   4.704   4.358  0.2564  0.3117  0.6172
 3990SOL    HW113411   6.798   4.614   4.347  1.6095  0.6515  1.2571
 3990SOL    HW213412   6.687   4.696   4.408  0.5447 -0.5465  0.9767
 3991SOL     OW13413   7.174   6.773   3.298 -0.0166 -0.6962 -0.5702
 3991SOL    HW113414   7.106   6.767   3.365 -1.0706 -0.5044 -1.5697
 3991SOL    HW213415   7.251   6.734   3.337 -0.6849 -0.8363  0.6442
 3992SOL     OW13416   7.278   7.827   8.468 -0.3790  0.7346  0.2024
 3992SOL    HW113417   7.370   7.812   8.489 -0.3040  0.8274 -0.0540
 3992SOL    HW213418   7.238   7.740   8.469 -0.0613  0.5695 -0.7444
 3993SOL     OW13419   5.388   7.885   4.782 -0.1872  0.1694 -0.3559
 3993SOL    HW113420   5.472   7.847   4.805  0.4346 -0.6838 -3.5196
 3993SOL    HW213421   5.325   7.814   4.790 -0.2661  0.2906  0.1349
 3994SOL     OW13422   5.377   2.944  11.220  0.3851  0.2652 -0.4630
 3994SOL    HW113423   5.301   2.997  11.243 -0.3151 -0.2145 -1.5553
 3994SOL    HW213424   5.452   2.992  11.254 -0.3836  0.9126  0.3527
 3995SOL     OW13425   7.083   5.830   3.085  0.4333  0.1995 -0.1840
 3995SOL    HW113426   7.177   5.811   3.091  0.3525 -0.2317 -0.2872
 3995SOL    HW213427   7.078   5.926   3.090  0.7687  0.1713  1.4754
 3996SOL     OW13428   3.992   5.447   3.349  0.1840  0.4253  1.0507
 3996SOL    HW113429   3.985   5.495   3.266  0.3433  1.2561  1.5083
 3996SOL    HW213430   3.957   5.360   3.329  1.9581 -0.0318 -0.4004
 3997SOL     OW13431   0.700   7.313   3.172  0.8485  0.0220 -0.3817
 3997SOL    HW113432   0.721   7.327   3.265 -1.1116 -1.0594  0.2840
 3997SOL    HW213433   0.728   7.394   3.129 -0.0293  1.4065  1.4993
 3998SOL     OW13434   6.632   7.833   6.458 -0.0021 -0.3213 -0.1993
 3998SOL    HW113435   6.676   7.903   6.506  1.6202 -0.9701 -0.6834
 3998SOL    HW213436   6.629   7.864   6.367  0.4321 -0.7410 -0.3573
 3999SOL     OW13437   5.710   6.760   4.472  0.2868  0.4544 -0.4606
 3999SOL    HW113438   5.675   6.711   4.398  0.4373 -0.9924  0.3912
 3999SOL    HW213439   5.773   6.820   4.433 -0.7254  0.7911 -1.6496
 4000SOL     OW13440   3.248   0.445   6.856 -0.1986  0.4395  0.4699
 4000SOL    HW113441   3.192   0.454   6.778  0.8696  0.7542 -0.2854
 4000SOL    HW213442   3.293   0.362   6.844  0.2622  0.6734  0.5522
 4001SOL     OW13443   7.054   0.063   7.988 -0.0652 -0.5277  0.8799
 4001SOL    HW113444   7.004   0.138   8.020 -0.3766  0.6284 -1.9277
 4001SOL    HW213445   7.145   0.095   7.986 -0.0589 -0.5564  0.6244
 4002SOL     OW13446   6.371   1.898   4.434 -0.5937  0.1493  0.4586
 4002SOL    HW113447   6.401   1.850   4.357  0.7481 -0.1064  1.1223
 4002SOL    HW213448   6.315   1.835   4.480 -0.6116 -0.0267  0.2039
 4003SOL     OW13449   7.417   3.829   2.281  0.3246 -0.1687  0.5824
 4003SOL    HW113450   7.357   3.902   2.268 -1.1116 -1.3063  0.6602
 4003SOL    HW213451   7.486   3.844   2.216 -1.2209 -0.0410 -1.1011
 4004SOL     OW13452   6.177   1.678   6.355  0.0383 -0.1699 -0.3636
 4004SOL    HW113453   6.205   1.607   6.413 -1.8294  0.0867  0.9308
 4004SOL    HW213454   6.193   1.758   6.405  2.4707  0.4589 -1.9537
 4005SOL     OW13455   3.841   7.214  12.040 -0.1944 -0.6455  0.0631
 4005SOL    HW113456   3.886   7.214  12.124 -1.1195 -1.2362  0.5799
 4005SOL    HW213457   3.763   7.268  12.055 -0.1892 -0.4716 -0.5174
 4006SOL     OW13458   4.773   4.309  11.489 -0.0253 -0.2466 -0.3128
 4006SOL    HW113459   4.813   4.232  11.528  0.3767 -0.1616 -0.5504
 4006SOL    HW213460   4.682   4.307  11.519  0.4836  0.3274  1.3960
 4007SOL     OW13461   1.249   6.457   0.095 -0.1038  0.4321  0.7055
 4007SOL    HW113462   1.295   6.380   0.065  1.2005  1.7891 -0.9626
 4007SOL    HW213463   1.174   6.466   0.036 -0.9794 -0.2011  1.6728
 4008SOL     OW13464   7.094   7.006   7.272 -0.0012  0.4316  0.7851
 4008SOL    HW113465   7.106   6.920   7.233 -0.2481  1.2209 -1.1664
 4008SOL    HW213466   7.050   6.989   7.355  0.8948 -1.3708  0.9527
 4009SOL     OW13467   0.286   0.004   4.942  0.8539 -0.1296 -0.0002
 4009SOL    HW113468   0.338   0.023   5.020  2.3749  1.1163 -1.2625
 4009SOL    HW213469   0.197   0.029   4.967  1.3583  0.5023  1.2531
 4010SOL     OW13470   1.976   1.870   2.261 -0.6509  0.2017  0.6220
 4010SOL    HW113471   2.060   1.914   2.279 -0.3033 -0.4132  0.5212
 4010SOL    HW213472   1.922   1.890   2.338 -0.6773  1.2250  0.3545
 4011SOL     OW13473   2.051   3.524  11.271 -0.5708  0.0463  0.0235
 4011SOL    HW113474   2.133   3.525  11.220  0.1115 -0.3352  1.0759
 4011SOL    HW213475   2.006   3.605  11.245  0.1895  0.3145 -0.5031
 4012SOL     OW13476   0.477   5.956   5.135  0.3759 -0.0132  0.3287
 4012SOL    HW113477   0.539   5.909   5.191 -0.9794 -0.4208  1.5507
 4012SOL    HW213478   0.401   5.899   5.130 -0.5436  1.1831  0.1937
 4013SOL     OW13479   5.826   2.445  11.526 -0.0235 -0.2372  0.0892
 4013SOL    HW113480   5.831   2.385  11.600 -0.2655 -0.5052 -0.1059
 4013SOL    HW213481   5.775   2.397  11.460  0.7608 -0.2865 -0.5114
 4014SOL     OW13482   0.422   6.437   5.626 -0.5962 -0.7456  0.1948
 4014SOL    HW113483   0.328   6.424   5.618 -0.3230 -2.3056 -1.0902
 4014SOL    HW213484   0.460   6.378   5.561  1.2406  0.6021 -0.0472
 4015SOL     OW13485   0.909   4.708   5.766 -0.1286 -0.0645 -0.3747
 4015SOL    HW113486   0.843   4.683   5.830  0.3628 -0.5158 -0.0377
 4015SOL    HW213487   0.969   4.766   5.813 -0.2244  0.2697 -0.6534
 4016SOL     OW13488   7.735   1.751   3.293 -0.1009  0.1320 -0.3190
 4016SOL    HW113489   7.696   1.831   3.258 -1.5444  0.3794  1.6648
 4016SOL    HW213490   7.667   1.715   3.349  0.9076 -1.9669 -0.3648
 4017SOL     OW13491   6.219   7.303   0.747  0.4162 -0.0966  0.2582
 4017SOL    HW113492   6.297   7.280   0.796  1.6231  0.2501 -1.3989
 4017SOL    HW213493   6.232   7.263   0.661 -1.0954  0.2333 -0.1633
 4018SOL     OW13494   0.684   1.292   6.320  0.2958 -0.2701  0.2745
 4018SOL    HW113495   0.741   1.301   6.244  0.7427 -1.1167  0.4968
 4018SOL    HW213496   0.728   1.227   6.375 -1.2265 -1.4609  0.1273
 4019SOL     OW13497   4.592   2.896  12.027 -0.2668 -0.4270 -0.1447
 4019SOL    HW113498   4.558   2.884  12.116  0.1072  1.0973  0.2405
 4019SOL    HW213499   4.514   2.906  11.972 -0.4928 -1.0154  0.0578
 4020SOL     OW13500   6.688   0.069   0.074  0.1864 -0.0576 -0.3553
 4020SOL    HW113501   6.637   0.037  -0.000  1.7113 -0.9386 -1.0728
 4020SOL    HW213502   6.724   0.153   0.045 -1.7431  1.1916  0.5996
 4021SOL     OW13503   4.406   6.204  11.664  0.2466  0.6260  0.0859
 4021SOL    HW113504   4.491   6.248  11.663  0.9134 -0.5287  1.6557
 4021SOL    HW213505   4.415   6.137  11.732 -1.2919 -0.7864 -1.0291
 4022SOL     OW13506   3.038   6.418  11.310 -0.0551  0.3063 -0.0966
 4022SOL    HW113507   2.985   6.496  11.326 -1.1017 -0.3358 -0.3143
 4022SOL    HW213508   2.980   6.359  11.262  0.1393 -1.2763  1.5030
 4023SOL     OW13509   0.457   1.670   6.964  0.6613 -0.7317 -0.4180
 4023SOL    HW113510   0.415   1.755   6.946  1.6236 -0.1376  0.0561
 4023SOL    HW213511   0.394   1.605   6.933 -1.2364  0.0913  1.4488
 4024SOL     OW13512   1.686   3.217   6.456  0.1647  0.3927 -0.3288
 4024SOL    HW113513   1.590   3.214   6.447 -0.5427  1.9700  3.9810
 4024SOL    HW213514   1.710   3.128   6.483 -0.5601  0.5812  1.0373
 4025SOL     OW13515   6.732   5.711   5.032 -0.7266 -0.1914  0.0657
 4025SOL    HW113516   6.820   5.743   5.050 -0.6880  0.2768 -0.9139
 4025SOL    HW213517   6.741   5.616   5.030  0.0779 -0.1106 -1.5408
 4026SOL     OW13518   6.851   2.776   4.688 -0.8175  0.3669  0.9839
 4026SOL    HW113519   6.877   2.862   4.721  0.9414  0.3208 -0.1256
 4026SOL    HW213520   6.774   2.793   4.634 -0.9569  1.1193  1.4056
 4027SOL     OW13521   6.030   4.712   9.446  0.1922  0.2711 -0.2407
 4027SOL    HW113522   6.119   4.727   9.414  0.1054  0.2913 -0.4748
 4027SOL    HW213523   6.042   4.657   9.524  0.3767 -0.2374 -0.6151
 4028SOL     OW13524   1.833   6.873   8.335  0.0455  0.2743 -0.1476
 4028SOL    HW113525   1.738   6.885   8.326  0.1154  0.2539 -1.0443
 4028SOL    HW213526   1.853   6.900   8.424 -0.3741  3.0380 -0.8138
 4029SOL     OW13527   0.491   5.678   3.330 -0.0246  0.0023  0.2983
 4029SOL    HW113528   0.485   5.629   3.413 -1.1540  0.3137  0.4068
 4029SOL    HW213529   0.423   5.745   3.337 -0.0672  0.0845 -0.8546
 4030SOL     OW13530   5.973   1.099   4.605  0.0167  0.0405 -0.1041
 4030SOL    HW113531   5.992   1.192   4.615 -0.4300  0.0595  0.6578
 4030SOL    HW213532   6.039   1.055   4.660 -1.6046  0.0739  1.9754
 4031SOL     OW13533   0.644   4.464  10.067  0.6541 -0.0838  0.0530
 4031SOL    HW113534   0.626   4.435   9.978  2.6601 -1.0210 -0.1082
 4031SOL    HW213535   0.593   4.404  10.122  0.4499 -0.3629 -0.4319
 4032SOL     OW13536   5.624   6.554   3.778 -0.0548  1.0894  0.6483
 4032SOL    HW113537   5.665   6.469   3.760 -0.0965  1.1634  0.1790
 4032SOL    HW213538   5.693   6.606   3.819  0.9581  1.8477 -1.8160
 4033SOL     OW13539   5.384   3.890   9.875 -0.5065 -0.3817  0.4022
 4033SOL    HW113540   5.310   3.875   9.934  0.1053 -0.6563  1.1127
 4033SOL    HW213541   5.355   3.853   9.791 -1.0765 -0.7165  0.7384
 4034SOL     OW13542   6.051   3.298   2.127 -0.2354  0.2032 -0.4053
 4034SOL    HW113543   6.021   3.386   2.104  0.2731  0.5634  0.2929
 4034SOL    HW213544   5.978   3.260   2.176 -0.4512  0.2399 -0.6973
 4035SOL     OW13545   6.120   6.566   6.498  0.1141 -0.5064 -0.0957
 4035SOL    HW113546   6.206   6.539   6.530 -0.2316 -0.6887  0.6983
 4035SOL    HW213547   6.058   6.525   6.558 -0.5349 -0.4463 -0.7103
 4036SOL     OW13548   3.816   4.594   1.166 -0.3941  0.5303 -0.5986
 4036SOL    HW113549   3.844   4.507   1.195  0.2115  0.1524 -2.2079
 4036SOL    HW213550   3.779   4.635   1.245 -0.5784 -1.1230  0.2179
 4037SOL     OW13551   4.268   4.329   1.118 -0.0328  0.2276 -0.0068
 4037SOL    HW113552   4.261   4.418   1.084 -0.0075 -0.4903 -2.0581
 4037SOL    HW213553   4.356   4.323   1.155  0.3690  0.7465 -0.8582
 4038SOL     OW13554   5.925   1.348   3.250 -0.0257 -0.7960 -0.3272
 4038SOL    HW113555   5.990   1.295   3.203 -0.0203 -1.0376 -0.0483
 4038SOL    HW213556   5.841   1.311   3.222 -0.0369 -0.6389 -0.5027
 4039SOL     OW13557   1.878   1.854   3.363 -0.2533 -0.0737  0.6899
 4039SOL    HW113558   1.816   1.782   3.355  0.1086 -0.2807 -0.5689
 4039SOL    HW213559   1.826   1.927   3.396 -0.9718 -0.4862  0.4894
 4040SOL     OW13560   7.357   4.179   8.485  0.6133 -0.5393  0.2263
 4040SOL    HW113561   7.334   4.230   8.407 -1.5929 -0.4764  0.8331
 4040SOL    HW213562   7.410   4.107   8.451  2.1360  1.0446 -0.9135
 4041SOL     OW13563   6.097   6.482   5.902 -0.6098  0.2005 -0.1929
 4041SOL    HW113564   6.030   6.502   5.836  1.1578  0.1528 -2.1170
 4041SOL    HW213565   6.153   6.417   5.860  1.6001  1.4610  0.6232
 4042SOL     OW13566   4.134   1.941  12.013  0.1644 -0.2578 -0.0020
 4042SOL    HW113567   4.177   1.860  12.042 -1.0408 -0.6816  0.6879
 4042SOL    HW213568   4.185   2.011  12.055  1.0699 -0.6517 -0.4087
 4043SOL     OW13569   2.623   3.729   2.297  0.4562 -0.0560  0.1145
 4043SOL    HW113570   2.678   3.803   2.271 -0.1407  0.6340  0.7808
 4043SOL    HW213571   2.609   3.741   2.391 -0.3492 -0.5504  0.0625
 4044SOL     OW13572   3.184   5.048   3.264 -0.1399  0.6768 -0.4431
 4044SOL    HW113573   3.159   5.132   3.303 -1.4456  0.2714 -0.3632
 4044SOL    HW213574   3.111   5.025   3.207  0.0509 -0.5589 -0.2239
 4045SOL     OW13575   3.186   2.965   2.323  0.1642 -0.3205 -0.1238
 4045SOL    HW113576   3.197   2.980   2.229  1.9280  0.5159  0.1649
 4045SOL    HW213577   3.228   3.040   2.364 -0.4241 -0.7616  1.3447
 4046SOL     OW13578   4.289   1.899   5.860 -0.4009  0.0311  0.0721
 4046SOL    HW113579   4.356   1.837   5.888 -1.7586 -1.6577 -0.2725
 4046SOL    HW213580   4.336   1.964   5.809  0.8779 -1.5882 -0.9090
 4047SOL     OW13581   4.766   4.032   1.118  0.6482 -0.2844  0.3606
 4047SOL    HW113582   4.851   4.066   1.091  0.2991 -0.2568 -0.7623
 4047SOL    HW213583   4.776   4.015   1.211  2.3918 -1.8011 -0.0428
 4048SOL     OW13584   0.875   4.790   7.811  0.3450  0.1018 -0.0121
 4048SOL    HW113585   0.941   4.747   7.864  1.9093  0.4798 -1.5778
 4048SOL    HW213586   0.794   4.743   7.830  1.5377 -2.0242  0.0712
 4049SOL     OW13587   0.943   2.089   4.539  0.0735 -0.1590  0.5768
 4049SOL    HW113588   0.964   2.178   4.510 -0.6058 -0.4524 -0.9136
 4049SOL    HW213589   0.954   2.092   4.634 -0.2747  1.6130  0.6082
 4050SOL     OW13590   1.532   0.558   6.016 -0.6103  0.0131 -0.0180
 4050SOL    HW113591   1.444   0.541   5.982 -1.0018  0.4666  0.7368
 4050SOL    HW213592   1.571   0.472   6.026 -0.3828 -0.1337 -1.8249
 4051SOL     OW13593   6.839   7.472   8.628 -0.1200 -0.4359 -0.2657
 4051SOL    HW113594   6.773   7.416   8.669 -1.0706  0.0580 -1.0730
 4051SOL    HW213595   6.853   7.433   8.541 -2.4305  1.7213 -1.7380
 4052SOL     OW13596   3.140   0.867  11.007 -0.2460  0.5187 -1.1883
 4052SOL    HW113597   3.148   0.962  11.008  0.6048  0.4949 -2.6036
 4052SOL    HW213598   3.091   0.846  11.087 -0.0361  2.0917 -0.6058
 4053SOL     OW13599   7.523   1.128   5.541  0.1929  0.4041  0.2882
 4053SOL    HW113600   7.526   1.224   5.543  0.7900  0.4565 -1.4018
 4053SOL    HW213601   7.484   1.107   5.456 -3.2875 -0.8735  1.9865
 4054SOL     OW13602   1.014   5.087   2.468  1.2500  0.6274 -0.0449
 4054SOL    HW113603   1.106   5.060   2.463  0.8199 -1.1220  0.6815
 4054SOL    HW213604   0.998   5.103   2.561  0.7340  0.5482 -0.1162
 4055SOL     OW13605   5.047   3.492   7.296  0.3028  0.6891 -0.3127
 4055SOL    HW113606   5.063   3.403   7.263  0.6251  1.3144 -1.9299
 4055SOL    HW213607   5.098   3.548   7.237 -1.3008  2.0874 -0.4098
 4056SOL     OW13608   4.198   1.861   5.286 -0.2045 -0.2977 -0.2870
 4056SOL    HW113609   4.251   1.802   5.340 -1.5236 -0.1739  1.2086
 4056SOL    HW213610   4.216   1.948   5.323  0.0617 -0.0103 -1.0743
 4057SOL     OW13611   7.609   0.555   4.482  0.7073  0.0668 -0.0269
 4057SOL    HW113612   7.700   0.575   4.502  0.1516  2.0850  0.6931
 4057SOL    HW213613   7.573   0.521   4.563  0.4183  0.8608  0.1877
 4058SOL     OW13614   3.786   7.064   6.105  0.3354  0.4473 -0.2554
 4058SOL    HW113615   3.878   7.075   6.130  0.9652  0.3454 -2.2978
 4058SOL    HW213616   3.767   6.971   6.119  0.8450  0.2735 -0.6914
 4059SOL     OW13617   1.492   7.776   5.665  0.8249  0.0218  0.1488
 4059SOL    HW113618   1.579   7.746   5.639  0.6439 -1.1701  0.8404
 4059SOL    HW213619   1.456   7.703   5.715 -0.0894  0.9967  0.9385
 4060SOL     OW13620   4.104   3.380  11.408 -0.2568  0.1037 -0.1788
 4060SOL    HW113621   4.070   3.339  11.329 -2.7598  0.5430  0.5871
 4060SOL    HW213622   4.105   3.309  11.473  1.8143 -0.2631 -0.5314
 4061SOL     OW13623   1.318   4.513   7.749 -0.0026 -0.0213 -0.1405
 4061SOL    HW113624   1.396   4.558   7.780 -0.5498  1.2184 -0.4818
 4061SOL    HW213625   1.346   4.467   7.670  0.4800  0.0431 -0.0062
 4062SOL     OW13626   3.227   5.127   5.040 -0.7531 -0.3383  0.4932
 4062SOL    HW113627   3.156   5.190   5.028  0.4570  0.8349 -0.9688
 4062SOL    HW213628   3.229   5.111   5.135 -1.3018  1.5955  0.8771
 4063SOL     OW13629   2.114   2.344  11.506 -0.0791 -0.2304  0.3959
 4063SOL    HW113630   2.079   2.345  11.596  0.5179 -0.3362  0.6355
 4063SOL    HW213631   2.184   2.279  11.509 -1.0592 -1.3753 -0.5330
 4064SOL     OW13632   2.978   4.280   0.077  0.1659 -0.1674 -0.5127
 4064SOL    HW113633   2.935   4.243   0.154  0.3878 -0.0962 -0.3534
 4064SOL    HW213634   3.024   4.357   0.110 -0.8730  0.6855 -0.9611
 4065SOL     OW13635   2.660   5.052  10.587 -0.3591 -0.1203  0.4335
 4065SOL    HW113636   2.703   5.069  10.503 -2.0962  2.0937 -0.1132
 4065SOL    HW213637   2.731   5.048  10.651  1.1030 -2.8432 -1.1718
 4066SOL     OW13638   1.305   5.546  11.725 -0.5961  0.4511 -0.0274
 4066SOL    HW113639   1.368   5.596  11.778 -0.9714 -0.3683  1.2488
 4066SOL    HW213640   1.230   5.605  11.716 -0.0393  1.0680 -0.7319
 4067SOL     OW13641   4.040   1.500   8.911 -0.3061 -0.6159  0.0795
 4067SOL    HW113642   3.946   1.486   8.901 -0.9851  3.5169 -1.1565
 4067SOL    HW213643   4.047   1.573   8.972  2.2571 -1.7091  1.2299
 4068SOL     OW13644   0.307   1.302   9.841  0.1077  0.2489 -0.5901
 4068SOL    HW113645   0.283   1.277   9.930  1.4190  0.9393 -0.0189
 4068SOL    HW213646   0.332   1.220   9.798 -1.0723 -0.1654 -0.5187
 4069SOL     OW13647   3.129   4.731   3.617 -0.1707  0.0706  0.1453
 4069SOL    HW113648   3.221   4.726   3.591  0.1005  0.5783  0.9774
 4069SOL    HW213649   3.112   4.649   3.663  0.8773  1.3994  3.0989
 4070SOL     OW13650   4.102   7.313  10.623 -0.0895  0.9991 -0.4407
 4070SOL    HW113651   4.009   7.291  10.623  0.1177  0.0651 -1.0011
 4070SOL    HW213652   4.120   7.341  10.712 -0.4214 -1.0453  0.3270
 4071SOL     OW13653   5.845   4.251   3.111 -0.1840  0.1718  0.3683
 4071SOL    HW113654   5.776   4.210   3.163 -0.3600 -1.1018 -0.8290
 4071SOL    HW213655   5.878   4.321   3.167 -1.1073 -0.4529  1.7522
 4072SOL     OW13656   4.089   5.967   6.417  0.1839 -0.1531  0.0319
 4072SOL    HW113657   4.079   6.051   6.463  1.0954 -0.6185  1.1413
 4072SOL    HW213658   4.092   5.990   6.324 -0.1853  0.9808  0.2855
 4073SOL     OW13659   4.034   4.413   8.104  0.1190  0.3321  0.6776
 4073SOL    HW113660   3.980   4.350   8.151 -0.9685  0.9846  0.3294
 4073SOL    HW213661   3.996   4.416   8.016  0.6968  0.8410  0.4436
 4074SOL     OW13662   3.973   5.262  11.471  0.2526  0.1574 -0.0297
 4074SOL    HW113663   3.958   5.168  11.456 -2.2085  0.8180 -2.4792
 4074SOL    HW213664   3.894   5.293  11.515  0.4300  1.3143 -0.4843
 4075SOL     OW13665   6.045   1.828   4.306  0.4697 -0.1577 -0.2599
 4075SOL    HW113666   6.099   1.773   4.363 -0.5493 -1.6674 -0.6681
 4075SOL    HW213667   5.961   1.835   4.352 -0.3734 -1.4142 -1.4898
 4076SOL     OW13668   4.511   2.765   8.727  0.2246  0.0057 -0.0440
 4076SOL    HW113669   4.517   2.671   8.708  0.2897  0.2964 -1.5180
 4076SOL    HW213670   4.437   2.772   8.787 -0.1045 -0.9223 -0.3253
 4077SOL     OW13671   3.720   2.132   5.502  0.1468 -0.7001  0.2210
 4077SOL    HW113672   3.705   2.220   5.468  0.8393 -0.8436 -0.4859
 4077SOL    HW213673   3.653   2.079   5.460  0.5846 -0.7538 -0.4229
 4078SOL     OW13674   3.913   5.804   4.422  0.0547  0.2828 -0.6438
 4078SOL    HW113675   3.872   5.785   4.338  1.0202 -0.7202 -0.9091
 4078SOL    HW213676   3.917   5.719   4.466  1.6690  0.3814 -0.5620
 4079SOL     OW13677   2.894   4.152   1.184  0.4096 -0.0620 -0.1770
 4079SOL    HW113678   2.832   4.156   1.111 -0.3778 -0.9243  0.4237
 4079SOL    HW213679   2.900   4.242   1.215 -0.8681 -0.0231  0.0084
 4080SOL     OW13680   6.650   3.128   2.662  0.0750 -0.3855  0.2610
 4080SOL    HW113681   6.587   3.186   2.620 -1.8039 -2.1157  0.4982
 4080SOL    HW213682   6.701   3.091   2.589  0.7060  0.8340  0.0475
 4081SOL     OW13683   6.578   5.514  12.162  0.0048 -0.5499 -0.2339
 4081SOL    HW113684   6.671   5.523  12.181 -0.0626 -0.6965  0.1765
 4081SOL    HW213685   6.535   5.548  12.241 -0.3079  1.2829 -1.1425
 4082SOL     OW13686   6.407   4.288   1.385  0.1284  0.8817 -0.0639
 4082SOL    HW113687   6.403   4.194   1.399  1.1770  0.7656 -0.4479
 4082SOL    HW213688   6.425   4.298   1.291  3.3391  1.3322  0.4860
 4083SOL     OW13689   4.850   6.640   9.451 -0.1312 -0.5086  0.3851
 4083SOL    HW113690   4.882   6.557   9.486 -0.6707 -0.4048  1.1415
 4083SOL    HW213691   4.921   6.702   9.469  0.1611 -0.7461  0.0576
 4084SOL     OW13692   1.384   0.493   1.460 -0.1227 -0.2090 -0.1379
 4084SOL    HW113693   1.454   0.501   1.395  0.6416  1.6166  0.8426
 4084SOL    HW213694   1.310   0.458   1.411  1.3677 -1.9674 -1.2636
 4085SOL     OW13695   1.241   3.469   8.911 -0.2584 -0.4450 -0.5657
 4085SOL    HW113696   1.171   3.425   8.959  0.1330  0.0178  0.4451
 4085SOL    HW213697   1.238   3.430   8.823 -1.8171 -0.3798 -0.5573
 4086SOL     OW13698   0.893   1.763   7.381  0.1928  0.1732 -0.3546
 4086SOL    HW113699   0.958   1.693   7.370  1.9993  1.2710  2.2288
 4086SOL    HW213700   0.905   1.820   7.305  1.1012 -0.5439 -0.7594
 4087SOL     OW13701   0.334   2.970  11.695 -0.4330 -0.3628 -0.4808
 4087SOL    HW113702   0.411   2.926  11.731  0.3029 -0.0852 -1.6499
 4087SOL    HW213703   0.272   2.899  11.678 -0.3826 -0.6071  0.3329
 4088SOL     OW13704   3.719   0.557   9.563  0.0679  0.1166  0.5285
 4088SOL    HW113705   3.740   0.627   9.501  1.2023  0.3409  1.1307
 4088SOL    HW213706   3.724   0.598   9.649 -0.1940 -0.4936  0.8438
 4089SOL     OW13707   6.142   6.402   9.220  0.7795 -0.4266  0.2345
 4089SOL    HW113708   6.183   6.341   9.281  0.5313 -0.8398 -0.0049
 4089SOL    HW213709   6.106   6.471   9.276 -0.3906 -1.3472  0.6654
 4090SOL     OW13710   6.593   7.337   5.288 -0.3606  0.0484 -0.3531
 4090SOL    HW113711   6.603   7.273   5.358  0.2173  0.1067 -0.3794
 4090SOL    HW213712   6.513   7.310   5.243  1.0805 -2.0738 -1.8173
 4091SOL     OW13713   3.146   3.961   1.881  0.1555 -0.3700  0.6902
 4091SOL    HW113714   3.206   3.886   1.875 -0.0818 -0.5348  0.3127
 4091SOL    HW213715   3.070   3.927   1.929  1.0967  0.3266  2.7770
 4092SOL     OW13716   3.941   4.559  10.755 -0.5478  0.2440 -0.0652
 4092SOL    HW113717   3.928   4.556  10.660  0.0596 -0.0021 -0.1456
 4092SOL    HW213718   4.023   4.512  10.769 -2.3574 -2.9620  0.9168
 4093SOL     OW13719   7.497   7.472  11.591 -0.1205  0.0995 -0.0180
 4093SOL    HW113720   7.428   7.475  11.657  0.3983  1.9986  0.4942
 4093SOL    HW213721   7.565   7.531  11.624  0.3758  0.7433 -2.0115
 4094SOL     OW13722   6.875   1.158   8.267 -0.1679  0.6209  0.7814
 4094SOL    HW113723   6.838   1.190   8.185  0.1473 -0.3165  0.2534
 4094SOL    HW213724   6.804   1.108   8.307  0.2384 -0.4769  0.1705
 4095SOL     OW13725   2.182   3.648   6.748  0.2616  0.0768  0.6907
 4095SOL    HW113726   2.190   3.736   6.709  2.1628 -0.0336  0.7188
 4095SOL    HW213727   2.107   3.609   6.705 -0.9745  1.9132  1.0755
 4096SOL     OW13728   6.547   1.426   5.392 -0.0162  0.1909  0.4220
 4096SOL    HW113729   6.602   1.483   5.445  0.5218 -0.4654  0.5892
 4096SOL    HW213730   6.483   1.391   5.455 -2.3946  3.0000 -0.2473
 4097SOL     OW13731   1.590   0.564   2.051 -0.4391 -0.0052  0.0463
 4097SOL    HW113732   1.508   0.542   2.008 -0.4742 -1.3094  0.7280
 4097SOL    HW213733   1.621   0.642   2.005 -2.2330  0.7488  0.0346
 4098SOL     OW13734   5.896   4.063  10.285 -0.2564 -0.1732  0.1408
 4098SOL    HW113735   5.825   4.004  10.310 -1.6188  1.5467  0.4392
 4098SOL    HW213736   5.934   4.090  10.369 -0.9466  0.9231  0.1130
 4099SOL     OW13737   3.140   5.513   6.508  0.3960 -0.4916  0.2080
 4099SOL    HW113738   3.110   5.595   6.470  0.8520 -1.3510 -2.1689
 4099SOL    HW213739   3.234   5.511   6.489  0.5023 -1.2777  0.7892
 4100SOL     OW13740   5.068   3.169   3.194 -0.5553 -0.2869 -0.3183
 4100SOL    HW113741   5.148   3.137   3.236 -0.8129  0.2404  0.5959
 4100SOL    HW213742   5.068   3.263   3.211 -0.9158 -0.1348 -1.1084
 4101SOL     OW13743   1.614   4.812   6.805  0.3391 -0.0424 -0.5709
 4101SOL    HW113744   1.694   4.855   6.836  0.0437  0.0687  0.0299
 4101SOL    HW213745   1.543   4.868   6.836 -0.0073 -0.5180 -0.5053
 4102SOL     OW13746   5.742   6.213   1.800 -0.1769 -0.3932  0.1007
 4102SOL    HW113747   5.825   6.257   1.813  0.8841 -2.0336 -0.7450
 4102SOL    HW213748   5.759   6.122   1.823 -2.2581 -0.4443  1.7327
 4103SOL     OW13749   6.000   5.364  11.961  0.1136 -0.0900 -0.1703
 4103SOL    HW113750   5.994   5.378  12.055  0.5446  2.7534 -0.5013
 4103SOL    HW213751   5.924   5.410  11.925 -1.1560 -2.7156 -1.1837
 4104SOL     OW13752   2.512   5.960  11.064  0.2899  0.1361  0.4714
 4104SOL    HW113753   2.551   5.966  10.977  0.8316 -1.3511  0.5730
 4104SOL    HW213754   2.586   5.936  11.121 -0.5836 -1.9919  0.7921
 4105SOL     OW13755   1.371   5.254   6.935 -0.5596  0.3780  0.1585
 4105SOL    HW113756   1.334   5.291   6.855 -0.2170 -0.8161 -0.5841
 4105SOL    HW213757   1.464   5.242   6.915 -0.6611 -0.8562  0.3528
 4106SOL     OW13758   3.497   3.690   8.461 -0.5890 -0.1844 -0.6030
 4106SOL    HW113759   3.508   3.595   8.463  1.4537  0.0123 -0.9535
 4106SOL    HW213760   3.490   3.711   8.368 -1.8341 -0.0339 -0.4979
 4107SOL     OW13761   4.399   4.132  11.418 -0.0864 -0.0300  0.5812
 4107SOL    HW113762   4.445   4.162  11.496 -0.9799  0.1284  1.0570
 4107SOL    HW213763   4.358   4.211  11.383  1.1672  0.1074 -0.6603
 4108SOL     OW13764   6.878   7.040   4.572  0.0569 -0.0635  0.0202
 4108SOL    HW113765   6.902   6.989   4.650  0.1577 -0.0059  0.0274
 4108SOL    HW213766   6.952   7.100   4.560  0.2290 -0.3462 -0.3545
 4109SOL     OW13767   1.480   5.351   9.640 -0.0128 -0.2184 -0.1954
 4109SOL    HW113768   1.432   5.271   9.659 -1.5372  0.4052 -1.2453
 4109SOL    HW213769   1.444   5.382   9.557  0.8395  1.3209 -0.0307
 4110SOL     OW13770   6.044   1.261   8.072 -0.0943  0.5566 -0.6459
 4110SOL    HW113771   6.070   1.352   8.057  0.7321  0.3077 -0.7591
 4110SOL    HW213772   6.085   1.213   8.000  2.0208 -0.3305  1.0473
 4111SOL     OW13773   4.387   3.444  11.469 -1.1455 -0.2770  0.3472
 4111SOL    HW113774   4.425   3.505  11.533  1.1971  1.5743 -2.5404
 4111SOL    HW213775   4.300   3.481  11.450 -0.3459  1.3869 -0.2681
 4112SOL     OW13776   5.510   6.126   0.054  0.4737  0.0163 -0.0641
 4112SOL    HW113777   5.600   6.122   0.023  0.8371 -0.0836  0.9792
 4112SOL    HW213778   5.474   6.039   0.036  1.1681 -0.5579  1.2039
 4113SOL     OW13779   4.727   2.960   6.049  0.1899  0.0150  0.0044
 4113SOL    HW113780   4.781   3.039   6.050  0.9535 -0.4373  2.8036
 4113SOL    HW213781   4.638   2.991   6.063  0.1999  0.4927 -0.9212
 4114SOL     OW13782   3.189   1.484   5.512  0.2347 -0.6912 -0.4437
 4114SOL    HW113783   3.191   1.504   5.419 -4.2685 -3.3607 -1.3810
 4114SOL    HW213784   3.224   1.395   5.519  0.1401 -0.6715  0.3830
 4115SOL     OW13785   0.046   4.042  10.293 -0.0902  0.3136 -0.1603
 4115SOL    HW113786   0.113   4.088  10.243  2.4456 -3.9959 -1.2759
 4115SOL    HW213787   0.088   4.021  10.376 -0.0274 -2.1195 -0.7219
 4116SOL     OW13788   4.586   2.943  10.917  0.8620 -0.2212 -0.1866
 4116SOL    HW113789   4.579   2.911  11.007  0.5441  1.6852  0.5093
 4116SOL    HW213790   4.627   2.871  10.870  0.3124 -1.5910  1.2950
 4117SOL     OW13791   3.678   7.869  12.408 -0.1377 -0.2209 -0.4118
 4117SOL    HW113792   3.629   7.787  12.409 -0.8404  0.1873  1.2225
 4117SOL    HW213793   3.624   7.929  12.356 -0.8774 -0.0880  0.4819
 4118SOL     OW13794   0.299   1.978  11.512  0.2060  0.2349  0.1332
 4118SOL    HW113795   0.313   1.960  11.605 -1.1286  0.7949  0.4722
 4118SOL    HW213796   0.236   2.049  11.511  0.3380  0.3585 -1.2141
 4119SOL     OW13797   4.456   5.315  11.078 -0.8026 -0.9578  0.6618
 4119SOL    HW113798   4.364   5.305  11.054 -0.4985 -1.0543 -0.5035
 4119SOL    HW213799   4.499   5.237  11.043  0.4288  0.9429 -2.5470
 4120SOL     OW13800   6.383   3.527   3.141  0.2932 -0.4004 -0.3577
 4120SOL    HW113801   6.346   3.603   3.097 -0.4137  0.3374  1.4470
 4120SOL    HW213802   6.470   3.517   3.102 -0.2639  0.2401 -1.8507
 4121SOL     OW13803   3.455   4.723   5.521  0.4597 -0.2320 -0.2176
 4121SOL    HW113804   3.453   4.627   5.516 -0.3844 -0.3144  1.0027
 4121SOL    HW213805   3.472   4.741   5.614 -1.3719  0.7591 -0.0267
 4122SOL     OW13806   0.588   1.268   5.546 -0.0919 -0.2795 -0.1343
 4122SOL    HW113807   0.579   1.322   5.625  0.5052 -2.0386  1.1938
 4122SOL    HW213808   0.607   1.180   5.579 -0.4430 -1.1975 -2.2418
 4123SOL     OW13809   7.212   5.860   0.724 -0.1112  0.2445  0.6574
 4123SOL    HW113810   7.243   5.786   0.672  1.0728  0.2441  1.3318
 4123SOL    HW213811   7.215   5.828   0.814  0.3035  1.0652  0.9394
 4124SOL     OW13812   3.043   3.905   1.246 -0.5518  0.1355 -0.1260
 4124SOL    HW113813   3.124   3.941   1.282  0.2123  0.8451 -2.3798
 4124SOL    HW213814   2.979   3.975   1.256 -0.7643 -0.2185  1.1420
 4125SOL     OW13815   7.495   4.929   6.803  0.5380  0.6786  0.4648
 4125SOL    HW113816   7.475   4.962   6.716  0.7070  0.3986  0.3165
 4125SOL    HW213817   7.426   4.865   6.822  2.4340 -2.0182 -1.0034
 4126SOL     OW13818   2.808   1.871   9.904  0.1347 -0.1895  0.0673
 4126SOL    HW113819   2.884   1.872   9.962  0.7410 -2.7298 -0.5516
 4126SOL    HW213820   2.837   1.917   9.825  0.5918 -0.0292  0.3240
 4127SOL     OW13821   1.823   5.880  12.433 -0.0587 -0.1332 -0.2895
 4127SOL    HW113822   1.857   5.935  12.362 -1.2781 -1.7235 -2.2400
 4127SOL    HW213823   1.851   5.792  12.410 -0.6932 -0.7196  1.0994
 4128SOL     OW13824   4.163   1.357   7.264  0.2923  0.3572 -0.2213
 4128SOL    HW113825   4.079   1.362   7.310  0.6287 -0.7893  0.5469
 4128SOL    HW213826   4.225   1.399   7.324  0.2290  1.5995 -0.9743
 4129SOL     OW13827   3.378   4.458   3.680  0.4694 -0.5157 -0.1576
 4129SOL    HW113828   3.423   4.523   3.733 -0.0812 -0.0754 -0.2240
 4129SOL    HW213829   3.376   4.495   3.592  2.0678 -1.5822 -0.6947
 4130SOL     OW13830   0.576   1.901   3.180  0.1077  0.2292 -0.8339
 4130SOL    HW113831   0.610   1.876   3.095 -0.9128 -1.3254 -0.8095
 4130SOL    HW213832   0.499   1.847   3.193  1.7730 -1.6975  2.2951
 4131SOL     OW13833   5.099   0.071  11.921  0.0740  0.0767  0.1179
 4131SOL    HW113834   5.172   0.080  11.859  0.5177 -0.4035  0.5627
 4131SOL    HW213835   5.107   0.147  11.978  0.9732 -0.5894  0.9221
 4132SOL     OW13836   0.904   3.088  12.333 -0.1669 -0.2985 -0.9380
 4132SOL    HW113837   0.981   3.077  12.277 -0.1562 -0.0617 -0.9702
 4132SOL    HW213838   0.877   3.179  12.319  0.9524  0.3575  0.8593
 4133SOL     OW13839   6.421   6.515   8.647 -0.5733 -0.1096  0.0294
 4133SOL    HW113840   6.515   6.506   8.662 -0.9253 -2.1669  1.2808
 4133SOL    HW213841   6.409   6.608   8.627  1.6125  0.3515  0.6192
 4134SOL     OW13842   0.329   2.070  10.111 -0.2056  0.1832 -0.2495
 4134SOL    HW113843   0.344   2.049  10.019  0.2071 -1.3568  0.1266
 4134SOL    HW213844   0.400   2.130  10.134  0.0528  0.0908 -0.7918
 4135SOL     OW13845   3.441   7.434   0.302  0.4101  0.1403 -0.0682
 4135SOL    HW113846   3.388   7.505   0.339  0.8488  0.6204 -0.3463
 4135SOL    HW213847   3.382   7.359   0.299 -0.9564  1.2181 -2.4392
 4136SOL     OW13848   3.073   6.365   9.750 -0.5559 -0.3588 -0.3026
 4136SOL    HW113849   3.110   6.435   9.803  0.5538 -0.5707 -0.7640
 4136SOL    HW213850   3.028   6.410   9.678  0.6113 -0.1051 -0.8977
 4137SOL     OW13851   2.573   3.441   3.549 -0.0391  0.6561 -1.0869
 4137SOL    HW113852   2.551   3.528   3.516  2.1621  2.1766  1.0400
 4137SOL    HW213853   2.531   3.437   3.635  1.7614  0.6275 -0.1706
 4138SOL     OW13854   3.119   7.171   6.772 -0.4363 -0.2228  0.3368
 4138SOL    HW113855   3.171   7.251   6.774 -3.0797  1.6507 -0.2954
 4138SOL    HW213856   3.152   7.123   6.695  0.3119  0.9078 -0.0786
 4139SOL     OW13857   6.043   0.211   3.519  0.0929 -0.4054  0.3682
 4139SOL    HW113858   6.115   0.171   3.569  1.3052  1.3439  0.1304
 4139SOL    HW213859   6.025   0.149   3.449  1.0590 -1.1111  0.7211
 4140SOL     OW13860   3.195   1.144   0.542  0.4009 -0.2364  0.0204
 4140SOL    HW113861   3.247   1.180   0.470  2.8860  0.1078  1.8583
 4140SOL    HW213862   3.121   1.204   0.551  1.7451  1.5402 -0.2249
 4141SOL     OW13863   6.293   6.512   8.368 -0.1955  0.6578 -0.3380
 4141SOL    HW113864   6.333   6.461   8.440 -0.3165  0.4309 -0.4299
 4141SOL    HW213865   6.270   6.596   8.408  0.7047  0.9265 -0.3705
 4142SOL     OW13866   4.424   6.263   5.520  0.5376 -0.2080 -0.2964
 4142SOL    HW113867   4.353   6.215   5.478 -0.7000  1.0662  0.2581
 4142SOL    HW213868   4.399   6.355   5.513  1.5744  0.2047  0.9084
 4143SOL     OW13869   1.280   1.124  11.765  0.3357  0.1617 -0.4345
 4143SOL    HW113870   1.296   1.173  11.684 -0.9327 -0.2746 -0.9637
 4143SOL    HW213871   1.270   1.033  11.736 -1.3690  0.1800  0.0541
 4144SOL     OW13872   6.740   1.020   2.614 -0.0363  0.2196 -0.4110
 4144SOL    HW113873   6.822   1.063   2.640  0.0428  0.8187 -1.6094
 4144SOL    HW213874   6.747   0.931   2.650  0.4379  0.7353  0.8416
 4145SOL     OW13875   3.393   3.965  10.073 -0.6936  0.3687 -0.3639
 4145SOL    HW113876   3.373   3.872  10.073  0.7813  0.0282 -0.3191
 4145SOL    HW213877   3.488   3.969  10.079 -0.5954  1.8398 -2.0415
 4146SOL     OW13878   2.949   6.688   3.208  0.6136  0.9318 -0.3509
 4146SOL    HW113879   2.931   6.684   3.114  0.0825  1.2981 -0.2704
 4146SOL    HW213880   2.931   6.778   3.232  2.5536  1.3282 -0.2295
 4147SOL     OW13881   0.055   1.125   5.756  0.3715  0.0571  0.4962
 4147SOL    HW113882  -0.034   1.140   5.789 -0.7328 -3.7268 -0.1996
 4147SOL    HW213883   0.049   1.142   5.662  0.5161  0.2484  0.5213
 4148SOL     OW13884   1.779   2.882   8.673  0.2059  0.0104  0.1508
 4148SOL    HW113885   1.772   2.789   8.652  0.7900  0.0069 -0.0459
 4148SOL    HW213886   1.763   2.927   8.590  0.2602  0.0738  0.1745
 4149SOL     OW13887   1.276   2.288   3.943 -0.1058  0.5350  0.4488
 4149SOL    HW113888   1.204   2.310   3.885  1.9270 -1.1183 -3.0820
 4149SOL    HW213889   1.269   2.193   3.955  1.6425  0.2448 -0.3986
 4150SOL     OW13890   4.847   2.363  11.047  0.1821  0.1374  0.2326
 4150SOL    HW113891   4.794   2.424  11.098 -0.2505  0.1218 -0.1941
 4150SOL    HW213892   4.797   2.282  11.045  0.9681 -0.3912  1.1871
 4151SOL     OW13893   0.930   5.758   3.941 -0.0593  0.0294  0.4473
 4151SOL    HW113894   0.879   5.812   4.002 -0.8231  1.4844 -1.3864
 4151SOL    HW213895   0.866   5.727   3.877  1.0623  0.4782 -0.9458
 4152SOL     OW13896   6.850   3.938   4.699  0.1087  0.1821 -0.2440
 4152SOL    HW113897   6.901   4.002   4.749 -0.2719  0.2192  0.1044
 4152SOL    HW213898   6.764   3.978   4.689  0.1673  0.1474 -0.8885
 4153SOL     OW13899   4.553   1.942   0.747  0.3387 -0.6729  0.7715
 4153SOL    HW113900   4.552   1.848   0.767 -0.7879 -0.2412  3.1020
 4153SOL    HW213901   4.626   1.952   0.687 -0.7513 -3.3187 -1.2203
 4154SOL     OW13902   3.638   4.546  10.621 -0.7775 -0.5592 -0.4653
 4154SOL    HW113903   3.665   4.475  10.678  0.6608  1.8093  2.0798
 4154SOL    HW213904   3.719   4.584  10.589 -1.1642  2.2478  1.4593
 4155SOL     OW13905   7.485   6.619   0.990 -0.2617 -0.3349  0.1015
 4155SOL    HW113906   7.472   6.530   0.957 -0.4611 -0.0197 -0.7080
 4155SOL    HW213907   7.403   6.664   0.972 -0.2099 -0.0195  0.6287
 4156SOL     OW13908   0.053   1.800   6.876  0.2864  0.2864  0.0562
 4156SOL    HW113909   0.128   1.741   6.871 -0.4075 -0.6164 -0.0462
 4156SOL    HW213910   0.050   1.841   6.789  0.2442 -0.2133 -0.1841
 4157SOL     OW13911   7.805   6.743  11.682 -0.4293  0.5327  0.3165
 4157SOL    HW113912   7.736   6.728  11.747 -0.5863  0.9925  0.2619
 4157SOL    HW213913   7.770   6.811  11.625 -0.5226 -0.2545 -0.5925
 4158SOL     OW13914   7.572   5.766   4.600 -0.0612 -0.4693  0.2902
 4158SOL    HW113915   7.666   5.769   4.619  0.7054 -1.1245 -2.7516
 4158SOL    HW213916   7.563   5.695   4.535 -2.4646  0.3813 -0.4347
 4159SOL     OW13917   7.227   4.707   7.829 -0.6093  0.1415  0.2076
 4159SOL    HW113918   7.298   4.658   7.870 -1.6382 -0.4951  1.3032
 4159SOL    HW213919   7.271   4.768   7.770  0.8728  0.2100  1.3162
 4160SOL     OW13920   5.151   4.977   9.329 -0.5201  0.0772  0.2849
 4160SOL    HW113921   5.178   4.920   9.401  0.0579  0.8023  0.6564
 4160SOL    HW213922   5.063   5.006   9.354 -0.5076 -0.0379  0.4712
 4161SOL     OW13923   3.389   6.913   1.237 -0.4976 -0.0636  0.6222
 4161SOL    HW113924   3.367   6.992   1.287  0.7294  0.5240  0.2496
 4161SOL    HW213925   3.435   6.857   1.299 -0.0433  0.1488  0.4742
 4162SOL     OW13926   1.022   1.078   4.611  0.0342  0.1812  0.8229
 4162SOL    HW113927   0.982   1.067   4.525 -0.2548 -1.9025  1.1744
 4162SOL    HW213928   0.970   1.146   4.653  0.3007  1.3659 -0.6898
 4163SOL     OW13929   6.397   6.739   3.202 -0.0116 -0.0790  0.1819
 4163SOL    HW113930   6.366   6.729   3.112  0.9215  0.3767 -0.2013
 4163SOL    HW213931   6.317   6.743   3.255 -0.6010  0.7985 -0.7440
 4164SOL     OW13932   0.516   4.872   1.857  0.1113  0.0828  0.1663
 4164SOL    HW113933   0.600   4.902   1.824 -0.4972 -0.9952 -2.6856
 4164SOL    HW213934   0.538   4.810   1.927  1.6636  0.2605 -0.1337
 4165SOL     OW13935   7.656   6.323   7.573  0.0124 -0.3038 -0.7246
 4165SOL    HW113936   7.627   6.326   7.664  1.3660  0.1577 -0.2863
 4165SOL    HW213937   7.681   6.413   7.552 -1.2631 -0.1976 -1.9057
 4166SOL     OW13938   4.261   4.546   2.912  0.0044 -0.7036 -0.3108
 4166SOL    HW113939   4.231   4.631   2.881  0.2805 -0.3617  0.3287
 4166SOL    HW213940   4.186   4.510   2.959  0.3767 -0.1050  0.7857
 4167SOL     OW13941   2.400   0.864   9.935  0.0864  0.0834 -0.7487
 4167SOL    HW113942   2.405   0.944   9.987 -1.3398 -0.0967 -0.2988
 4167SOL    HW213943   2.484   0.820   9.950  0.1693  0.6232  0.4471
 4168SOL     OW13944   6.529   6.892   0.983  0.0953  0.4114 -0.0608
 4168SOL    HW113945   6.612   6.939   0.989  0.9967 -1.0591 -0.3774
 4168SOL    HW213946   6.534   6.827   1.053 -0.3671 -0.2914 -0.6661
 4169SOL     OW13947   1.990   3.042   2.268 -0.4111 -0.4962  0.0720
 4169SOL    HW113948   2.055   3.041   2.338  0.9061  0.9466 -1.0640
 4169SOL    HW213949   1.906   3.056   2.313  0.4397  0.7914  1.3441
 4170SOL     OW13950   7.240   4.808   2.916  0.0710 -0.4110 -0.2586
 4170SOL    HW113951   7.216   4.882   2.971 -0.7706 -1.8952  1.4612
 4170SOL    HW213952   7.217   4.837   2.827  0.0027  1.4574  0.3196
 4171SOL     OW13953   3.158   1.340   7.100  0.3229  0.3177 -1.2346
 4171SOL    HW113954   3.070   1.377   7.110 -0.4823 -0.7850 -3.4974
 4171SOL    HW213955   3.143   1.254   7.060  2.4234 -0.1027 -1.2175
 4172SOL     OW13956   5.104   6.529   9.639  0.2259 -0.4250  0.1802
 4172SOL    HW113957   5.172   6.559   9.699  0.6922 -0.5025 -0.3053
 4172SOL    HW213958   5.108   6.591   9.565 -0.8115  0.0908  0.5418
 4173SOL     OW13959   1.935   1.102   1.582  0.3020 -0.3784 -0.7560
 4173SOL    HW113960   1.855   1.110   1.635  1.1594 -0.3048  0.5916
 4173SOL    HW213961   2.000   1.153   1.630  1.1888 -0.5125 -1.7817
 4174SOL     OW13962   6.751   4.597   1.301 -0.4332 -0.1098 -0.4408
 4174SOL    HW113963   6.775   4.606   1.393 -1.2485 -2.6755  0.1009
 4174SOL    HW213964   6.834   4.602   1.254  0.1236  0.1221  0.5400
 4175SOL     OW13965   4.101   6.846   8.454  0.3242  0.1102 -0.2022
 4175SOL    HW113966   4.182   6.810   8.490  0.2860 -1.2178 -1.3750
 4175SOL    HW213967   4.031   6.800   8.501  0.2736 -1.6761 -1.9075
 4176SOL     OW13968   3.950   1.052   6.111  0.1615  0.6312  0.0054
 4176SOL    HW113969   4.039   1.082   6.128  0.1368  0.7142 -0.0142
 4176SOL    HW213970   3.906   1.127   6.072 -0.3425  1.0552  1.3676
 4177SOL     OW13971   3.326   0.305   7.368 -0.8300  0.1419 -0.0062
 4177SOL    HW113972   3.318   0.239   7.299 -0.2139 -0.9892  0.9613
 4177SOL    HW213973   3.414   0.341   7.357 -0.8084  0.1092  0.0571
 4178SOL     OW13974   1.169   3.559   1.022  0.4103  0.1560 -0.2200
 4178SOL    HW113975   1.195   3.470   0.999  0.4079  0.0095  0.3200
 4178SOL    HW213976   1.252   3.605   1.037  0.3874 -0.1393  0.8766
 4179SOL     OW13977   4.686   4.453   2.513 -0.7352 -0.6688 -0.0281
 4179SOL    HW113978   4.634   4.409   2.445 -1.4988 -3.0057  1.9186
 4179SOL    HW213979   4.622   4.482   2.577  0.1148 -0.6634  0.8455
 4180SOL     OW13980   2.050   0.646   1.271 -0.3840  0.2064  0.7855
 4180SOL    HW113981   2.090   0.722   1.314  0.5245 -0.3693  0.9878
 4180SOL    HW213982   2.096   0.639   1.187  0.3282 -0.7620  1.2355
 4181SOL     OW13983   1.996   3.239   0.759 -0.3994  0.5012  0.0192
 4181SOL    HW113984   2.019   3.161   0.810 -2.2604  0.0408  0.2476
 4181SOL    HW213985   2.041   3.311   0.804  0.8526 -0.3406  0.1709
 4182SOL     OW13986   0.071   6.597   0.573 -0.3339 -0.5585  0.6543
 4182SOL    HW113987   0.127   6.672   0.592  0.7328 -0.9020 -0.9758
 4182SOL    HW213988  -0.013   6.636   0.548 -0.5325 -0.0108  2.0786
 4183SOL     OW13989   5.968   7.364   0.707 -0.1635  0.3896  0.4504
 4183SOL    HW113990   5.936   7.400   0.790  2.5451  2.1351  0.8721
 4183SOL    HW213991   6.062   7.351   0.721  0.5392  1.4357 -2.5425
 4184SOL     OW13992   2.434   6.817   2.094  0.0790 -0.4249  0.0716
 4184SOL    HW113993   2.474   6.769   2.166  1.2093  0.1568 -0.1489
 4184SOL    HW213994   2.508   6.850   2.043 -0.6425  1.5531  0.2220
 4185SOL     OW13995   6.619   5.687   2.707 -0.3862  0.1078  0.3787
 4185SOL    HW113996   6.696   5.698   2.762 -0.8563  2.1381  0.7169
 4185SOL    HW213997   6.585   5.776   2.695 -3.3420 -0.7967  1.2045
 4186SOL     OW13998   1.631   0.312   6.088  0.2262 -0.0587 -0.4407
 4186SOL    HW113999   1.694   0.342   6.154 -1.6255  0.6904  1.0911
 4186SOL    HW214000   1.647   0.218   6.082  0.7931 -0.0562  0.7096
 4187SOL     OW14001   6.635   5.429   2.984  0.3998 -0.2251  0.1944
 4187SOL    HW114002   6.660   5.385   3.065  1.1602 -1.3412 -0.6249
 4187SOL    HW214003   6.609   5.517   3.012 -2.0834 -1.4138  1.9834
 4188SOL     OW14004   2.010   7.752   1.503  0.1479 -0.6775  0.6662
 4188SOL    HW114005   2.041   7.806   1.431 -1.1613  0.2274  0.7477
 4188SOL    HW214006   2.079   7.757   1.569  0.3273  0.3805  0.4102
 4189SOL     OW14007   3.974   2.303  11.689  0.1708  0.2657  0.0710
 4189SOL    HW114008   4.036   2.376  11.685 -0.6897  1.0477  0.4960
 4189SOL    HW214009   4.022   2.232  11.730  1.1055  0.5017 -0.5828
 4190SOL     OW14010   1.331   3.803   2.598 -0.1712 -0.3125 -0.1904
 4190SOL    HW114011   1.265   3.822   2.533 -1.0905  0.5421  0.9536
 4190SOL    HW214012   1.282   3.787   2.679  0.8692 -2.2816  0.1396
 4191SOL     OW14013   5.938   5.623   3.407  0.0216 -0.0834 -0.1865
 4191SOL    HW114014   5.952   5.675   3.486  0.1304 -1.5897  0.8249
 4191SOL    HW214015   5.938   5.687   3.336  0.6101  1.2382  0.9547
 4192SOL     OW14016   2.494   7.258  10.637  0.4759 -0.1726  0.2096
 4192SOL    HW114017   2.521   7.274  10.727  0.8685  0.4942 -0.0187
 4192SOL    HW214018   2.426   7.323  10.620  2.4791  1.7552 -0.9095
 4193SOL     OW14019   0.856   1.052   6.238  0.2204  0.6831  0.5444
 4193SOL    HW114020   0.877   1.016   6.324  1.3395  0.1854  0.0880
 4193SOL    HW214021   0.938   1.044   6.188 -0.6053  0.2654 -0.8105
 4194SOL     OW14022   7.549   3.712   2.857  0.3790 -0.2717  0.0031
 4194SOL    HW114023   7.637   3.746   2.848  0.3403 -0.3915 -0.8324
 4194SOL    HW214024   7.505   3.774   2.915  0.4277  0.8755 -1.1638
 4195SOL     OW14025   2.311   1.034   1.013  0.0861 -0.4697  0.6648
 4195SOL    HW114026   2.274   1.099   0.954 -1.4252 -1.1866  0.7850
 4195SOL    HW214027   2.238   1.008   1.069  1.0104 -1.2337  1.5600
 4196SOL     OW14028   5.861   7.955   4.075  0.4208 -0.3624 -0.7111
 4196SOL    HW114029   5.949   7.977   4.044  0.4248 -0.3432 -0.6865
 4196SOL    HW214030   5.808   7.951   3.995 -0.5953  4.2063 -0.5435
 4197SOL     OW14031   7.104   0.075  11.952  0.1076 -0.2575  0.0026
 4197SOL    HW114032   7.150   0.044  11.874 -0.8000  0.1534 -0.7219
 4197SOL    HW214033   7.155   0.042  12.026  1.1637 -0.3780 -0.7707
 4198SOL     OW14034   3.484   0.837   6.440  0.2351 -0.7200  0.3535
 4198SOL    HW114035   3.529   0.901   6.385  1.4902 -1.0036  1.0319
 4198SOL    HW214036   3.546   0.766   6.451  0.0954 -0.5894  2.2990
 4199SOL     OW14037   0.168   7.894   7.206  0.4450 -0.1554 -0.2601
 4199SOL    HW114038   0.237   7.921   7.145  0.5494 -1.2451 -0.6332
 4199SOL    HW214039   0.211   7.893   7.291  0.6314  0.0986 -0.3475
 4200SOL     OW14040   4.137   3.883   7.010 -0.6459  0.7523 -0.1817
 4200SOL    HW114041   4.137   3.802   7.060  0.3925  1.6188  1.3091
 4200SOL    HW214042   4.048   3.918   7.018 -1.1821 -0.3496 -1.0831
 4201SOL     OW14043   6.008   7.296   8.330  0.1631 -0.5954 -0.3631
 4201SOL    HW114044   5.975   7.256   8.250  0.9518 -1.1304 -0.4322
 4201SOL    HW214045   6.049   7.224   8.378  2.2532  0.2151 -0.8230
 4202SOL     OW14046   7.871   6.782  10.614 -0.3601  0.0850 -0.0366
 4202SOL    HW114047   7.951   6.758  10.659 -0.9921 -1.2260  0.4229
 4202SOL    HW214048   7.829   6.846  10.672 -0.2328 -0.1312  0.2942
 4203SOL     OW14049   1.715   4.986   1.976  0.0100 -0.0005  0.0174
 4203SOL    HW114050   1.626   4.970   2.008  0.7083 -1.8856  1.2129
 4203SOL    HW214051   1.711   4.970   1.882 -0.9955  0.3636 -0.0077
 4204SOL     OW14052   0.330   7.266  10.636  0.4656 -0.6884  0.0151
 4204SOL    HW114053   0.378   7.256  10.553 -0.6551 -1.2059 -0.6000
 4204SOL    HW214054   0.295   7.355  10.632  1.0004 -0.4579  0.2759
 4205SOL     OW14055   7.804   6.811   9.602  0.1659  0.1390  0.3974
 4205SOL    HW114056   7.850   6.845   9.679 -0.6978  0.1884  0.9082
 4205SOL    HW214057   7.839   6.861   9.529  0.2825  0.7903  0.8895
 4206SOL     OW14058   6.379   1.700  11.106 -0.2294  0.1446 -0.1618
 4206SOL    HW114059   6.427   1.697  11.189 -0.6664  0.7519  0.1228
 4206SOL    HW214060   6.384   1.611  11.072  1.4030  0.2661 -0.3235
 4207SOL     OW14061   5.325   6.368   8.582  0.4812 -0.5037  0.0248
 4207SOL    HW114062   5.299   6.319   8.504 -0.1861 -0.1923  0.0449
 4207SOL    HW214063   5.276   6.327   8.654  0.1974 -0.0422  0.0974
 4208SOL     OW14064   3.061   0.896   0.568 -0.0479  0.1635  0.6227
 4208SOL    HW114065   3.138   0.839   0.570  0.7405  1.1952  1.9472
 4208SOL    HW214066   3.098   0.984   0.561 -1.2460  0.5480 -2.0417
 4209SOL     OW14067   5.479   0.343   7.652 -0.1311 -0.0339 -0.0310
 4209SOL    HW114068   5.506   0.402   7.722  0.6304 -0.5307  0.0998
 4209SOL    HW214069   5.507   0.256   7.681 -1.0070 -0.4381 -0.3353
 4210SOL     OW14070   3.710   0.928   4.361 -0.2021 -0.3525  0.9964
 4210SOL    HW114071   3.782   0.884   4.407 -0.2094 -1.2421  0.1865
 4210SOL    HW214072   3.752   1.003   4.317 -0.0209 -0.0787  1.6263
 4211SOL     OW14073   4.092   4.401   7.189 -0.1380  0.1611 -0.0399
 4211SOL    HW114074   4.094   4.494   7.167 -1.6645  0.1387 -0.3950
 4211SOL    HW214075   4.047   4.397   7.273 -1.7329 -0.3564 -0.8715
 4212SOL     OW14076   1.445   4.834   9.787 -0.1379 -0.2103  0.0515
 4212SOL    HW114077   1.532   4.871   9.773  0.3987 -1.4856 -0.0876
 4212SOL    HW214078   1.451   4.791   9.872 -0.5633 -0.5257 -0.0750
 4213SOL     OW14079   0.125   3.198   6.054  0.0228 -0.2464 -0.2742
 4213SOL    HW114080   0.091   3.275   6.099 -0.5542 -0.1843 -0.7940
 4213SOL    HW214081   0.113   3.126   6.117 -0.4928 -0.1074 -0.2104
 4214SOL     OW14082   6.064   2.234   8.172  0.2456 -0.2337  0.9577
 4214SOL    HW114083   6.068   2.306   8.235 -0.8962  0.0349  0.7518
 4214SOL    HW214084   6.082   2.275   8.087  0.0440 -0.2605  0.9000
 4215SOL     OW14085   4.848   6.082   2.975  0.0917  0.0827  0.7993
 4215SOL    HW114086   4.804   6.120   3.052  1.4944  1.8621  0.7925
 4215SOL    HW214087   4.923   6.035   3.011  0.7858  0.9718  0.5488
 4216SOL     OW14088   1.381   7.204   2.077  0.0444 -0.0454 -0.0936
 4216SOL    HW114089   1.333   7.276   2.119 -1.7648 -1.5757  0.6083
 4216SOL    HW214090   1.396   7.141   2.147 -0.2395 -1.2557 -1.0839
 4217SOL     OW14091   2.211   1.948  10.086 -0.2404  0.5484  0.4649
 4217SOL    HW114092   2.263   2.024  10.110 -0.8352  1.1501 -0.0886
 4217SOL    HW214093   2.171   1.973  10.002 -0.2077 -0.4913  0.1309
 4218SOL     OW14094   0.667   1.026   1.747  0.0191  0.1080 -0.4180
 4218SOL    HW114095   0.630   1.013   1.660  0.0308 -0.8924 -0.2826
 4218SOL    HW214096   0.591   1.040   1.803 -0.2363 -2.4031 -0.0601
 4219SOL     OW14097   7.119   5.263   4.385  0.3663 -0.4665  0.2233
 4219SOL    HW114098   7.120   5.295   4.475  0.5814  0.1972 -0.0067
 4219SOL    HW214099   7.199   5.300   4.346 -0.7736  1.0196 -0.8229
 4220SOL     OW14100   5.247   3.379   4.014  0.1082 -0.6470 -0.4895
 4220SOL    HW114101   5.288   3.373   4.100  1.6725 -0.0988 -1.1607
 4220SOL    HW214102   5.190   3.456   4.020  0.2949 -0.5454  0.0181
 4221SOL     OW14103   3.532   1.603   9.215 -0.0601 -0.0781 -0.4363
 4221SOL    HW114104   3.610   1.551   9.197 -1.4144 -2.3892 -0.0371
 4221SOL    HW214105   3.539   1.625   9.308  0.4990  0.4287 -0.5943
 4222SOL     OW14106   3.159   3.031   1.092 -0.5265  0.0995  0.6330
 4222SOL    HW114107   3.237   3.055   1.142 -0.3492 -1.4043  1.1257
 4222SOL    HW214108   3.087   3.036   1.156 -0.6403  0.2870  0.4913
 4223SOL     OW14109   1.229   5.386   5.741 -0.0544  0.0807 -0.3315
 4223SOL    HW114110   1.278   5.344   5.811 -0.7794  0.9040  0.6997
 4223SOL    HW214111   1.294   5.399   5.671  1.4582  1.8150  1.2523
 4224SOL     OW14112   3.356   6.972   3.827  0.0013  0.1704  0.0220
 4224SOL    HW114113   3.419   6.901   3.839 -1.2009 -0.8419  0.4540
 4224SOL    HW214114   3.374   7.032   3.899  1.6424  0.8116 -0.8706
 4225SOL     OW14115   5.446   5.972   0.393 -0.5704 -0.7738  0.2692
 4225SOL    HW114116   5.435   5.877   0.397 -1.7275 -0.6927 -0.6726
 4225SOL    HW214117   5.427   6.003   0.481  0.0083 -1.4338  0.6272
 4226SOL     OW14118   7.705   3.494   6.585  0.5562  0.4144  0.1572
 4226SOL    HW114119   7.626   3.548   6.576  0.6095  0.6373  0.9451
 4226SOL    HW214120   7.672   3.404   6.593  0.3212  0.5810  1.2730
 4227SOL     OW14121   5.659   7.157   0.211  0.3165  0.0080 -0.1916
 4227SOL    HW114122   5.579   7.209   0.221  0.3164  0.3984 -1.9657
 4227SOL    HW214123   5.684   7.168   0.119  1.7914 -1.0199  0.0493
 4228SOL     OW14124   7.738   7.480   8.804  0.3563  0.2652 -0.1338
 4228SOL    HW114125   7.744   7.564   8.757  0.0649 -0.8290 -2.2466
 4228SOL    HW214126   7.661   7.490   8.860  0.3705  1.4409 -0.2878
 4229SOL     OW14127   6.874   6.139   8.382 -0.8210  0.3776  0.0756
 4229SOL    HW114128   6.944   6.103   8.437 -1.7275  0.6528  1.4576
 4229SOL    HW214129   6.891   6.233   8.379 -0.5074  0.3054 -0.5195
 4230SOL     OW14130   1.385   7.773   7.163 -0.8564 -0.0480  0.7157
 4230SOL    HW114131   1.316   7.809   7.107 -0.9720 -1.3147  0.0030
 4230SOL    HW214132   1.371   7.815   7.248 -0.5234  2.1051 -0.2283
 4231SOL     OW14133   1.446   3.563   2.103 -1.3952 -0.2992  0.0874
 4231SOL    HW114134   1.434   3.475   2.140 -1.3643 -0.3293  0.0256
 4231SOL    HW214135   1.481   3.548   2.015  0.9058 -0.1781  0.9226
 4232SOL     OW14136   0.189   5.053   0.468 -0.4902 -0.0101 -0.0821
 4232SOL    HW114137   0.283   5.052   0.482 -0.3278  1.4551 -0.8463
 4232SOL    HW214138   0.164   4.961   0.461  0.6872 -0.4611  1.2159
 4233SOL     OW14139   1.831   5.847   8.387  0.4559 -0.3789  0.1088
 4233SOL    HW114140   1.807   5.797   8.465  2.1436  1.5489  1.9747
 4233SOL    HW214141   1.875   5.925   8.421 -0.1401  1.3329 -2.7435
 4234SOL     OW14142   0.672   1.922   0.257 -0.0622  0.1921  0.1379
 4234SOL    HW114143   0.701   1.832   0.250 -2.2881 -0.6440  0.6608
 4234SOL    HW214144   0.618   1.924   0.337  0.7761  2.2437  0.7265
 4235SOL     OW14145   1.257   3.384   9.918 -0.3376  0.0915 -0.3142
 4235SOL    HW114146   1.243   3.451   9.984  0.5838 -2.7099  2.9975
 4235SOL    HW214147   1.321   3.422   9.858 -0.8514  2.5994  0.6306
 4236SOL     OW14148   2.574   6.730   3.308 -0.3399  0.5221  0.3342
 4236SOL    HW114149   2.665   6.755   3.323  0.3937 -1.3587 -0.7378
 4236SOL    HW214150   2.561   6.743   3.214 -0.7505 -0.5069  0.2402
 4237SOL     OW14151   7.808   3.212   5.433  0.1238 -0.2989  0.5545
 4237SOL    HW114152   7.767   3.202   5.519 -0.1006 -1.0335  0.3695
 4237SOL    HW214153   7.899   3.184   5.446 -0.3060 -1.9079  0.2123
 4238SOL     OW14154   1.242   3.579   9.513 -0.5991  0.2183  0.3971
 4238SOL    HW114155   1.189   3.631   9.573 -1.0882 -1.6962  1.7234
 4238SOL    HW214156   1.287   3.517   9.569  0.1099 -0.6722 -1.0963
 4239SOL     OW14157   7.588   3.754   3.812  0.0134  0.2024 -0.3282
 4239SOL    HW114158   7.555   3.786   3.895 -0.0134  0.3549 -0.3980
 4239SOL    HW214159   7.517   3.770   3.749  0.1479  0.3588 -0.4396
 4240SOL     OW14160   1.769   2.047  11.956 -0.5670 -0.0794 -1.0794
 4240SOL    HW114161   1.721   2.038  12.038 -0.7254  1.1814 -1.0086
 4240SOL    HW214162   1.770   1.959  11.918  0.4477 -0.9386  0.7745
 4241SOL     OW14163   4.691   4.915   9.220  0.3284  0.6429  0.3335
 4241SOL    HW114164   4.621   4.850   9.220  1.0748 -0.1799  0.3869
 4241SOL    HW214165   4.711   4.930   9.312 -0.7340  1.9528  0.3727
 4242SOL     OW14166   4.458   6.201   4.818  0.1727  0.9248 -0.4291
 4242SOL    HW114167   4.403   6.150   4.759  1.2576 -1.1649  0.2389
 4242SOL    HW214168   4.406   6.278   4.840 -1.2708  0.4803 -2.0668
 4243SOL     OW14169   3.012   0.103   2.075 -0.8529  0.0657  0.0130
 4243SOL    HW114170   2.974   0.107   2.163  1.8625 -0.3873  1.2929
 4243SOL    HW214171   2.962   0.168   2.025 -0.5240  2.6061  2.6830
 4244SOL     OW14172   7.957   5.240   6.541  0.5101 -0.5379  0.0033
 4244SOL    HW114173   8.032   5.262   6.597  0.1320 -0.7310  0.5955
 4244SOL    HW214174   7.882   5.281   6.584  0.0530 -1.5540  0.2054
 4245SOL     OW14175   4.407   2.723   7.771 -0.2217  0.5016  0.5600
 4245SOL    HW114176   4.361   2.639   7.766  2.0310 -0.7866  0.1099
 4245SOL    HW214177   4.374   2.773   7.696  0.0968 -0.9291 -0.5795
 4246SOL     OW14178   3.558   2.691   9.855 -0.1748  0.6363  0.2404
 4246SOL    HW114179   3.629   2.671   9.916 -0.2749 -0.4384  0.0170
 4246SOL    HW214180   3.575   2.636   9.779 -0.7152  1.0865 -0.2157
 4247SOL     OW14181   4.289   5.184   9.659  0.0339 -0.0716 -0.0341
 4247SOL    HW114182   4.351   5.235   9.711 -0.1553 -0.8001  0.9289
 4247SOL    HW214183   4.303   5.093   9.686 -3.1111 -0.0689  2.1089
 4248SOL     OW14184   1.463   2.630   8.748  0.1477 -0.0138  0.7601
 4248SOL    HW114185   1.377   2.631   8.706  0.6152 -0.9409 -0.2674
 4248SOL    HW214186   1.464   2.550   8.799  0.8994 -0.7699 -0.3801
 4249SOL     OW14187   5.457   3.531   9.262  0.3651  0.1000  0.0033
 4249SOL    HW114188   5.445   3.455   9.205  0.5235 -0.2705  0.4536
 4249SOL    HW214189   5.440   3.607   9.206 -2.7373 -0.3159  0.2315
 4250SOL     OW14190   6.524   6.186   3.863 -0.1895 -0.1179  0.1205
 4250SOL    HW114191   6.519   6.182   3.959 -1.3846  1.9803  0.2003
 4250SOL    HW214192   6.615   6.207   3.844 -0.2431  0.8463  0.8839
 4251SOL     OW14193   2.029   4.042   4.143  0.3320  0.0583 -0.4266
 4251SOL    HW114194   2.050   3.950   4.127 -0.3814  0.0365 -1.2855
 4251SOL    HW214195   2.085   4.091   4.084  0.1976  0.1409 -0.4871
 4252SOL     OW14196   6.913   2.126   8.608 -0.1700  0.2600 -0.3069
 4252SOL    HW114197   6.922   2.112   8.703 -1.2760  0.1075 -0.2070
 4252SOL    HW214198   6.900   2.220   8.598 -4.2184 -0.0877  0.1438
 4253SOL     OW14199   5.454   4.902   9.074 -0.0502 -0.2998 -0.2996
 4253SOL    HW114200   5.494   4.878   9.158  2.2139  0.6293 -1.0399
 4253SOL    HW214201   5.454   4.998   9.074 -2.9626 -0.2124 -0.1009
 4254SOL     OW14202   1.724   2.930   5.004  0.0428 -0.3102 -0.9177
 4254SOL    HW114203   1.728   2.979   5.085  1.0115 -1.3601 -0.2916
 4254SOL    HW214204   1.815   2.926   4.973  0.1289 -2.2244 -0.5847
 4255SOL     OW14205   5.773   5.144   9.387  0.2092  0.3839 -0.2058
 4255SOL    HW114206   5.859   5.115   9.416  0.8914  1.1234 -1.4119
 4255SOL    HW214207   5.789   5.187   9.303 -1.2493  1.0881 -0.1554
 4256SOL     OW14208   6.972   2.803  10.516 -0.4245 -0.1849  0.1220
 4256SOL    HW114209   6.973   2.896  10.540  1.8037  0.2053 -1.2175
 4256SOL    HW214210   6.898   2.767  10.564 -1.5337  2.3375  0.4744
 4257SOL     OW14211   5.412   0.863  11.768 -0.2776  0.1509  0.8215
 4257SOL    HW114212   5.470   0.939  11.777 -0.5608  0.2237  2.3882
 4257SOL    HW214213   5.444   0.818  11.690  1.0209  0.9275  0.8640
 4258SOL     OW14214   7.023   3.516  11.053 -1.2881  0.3153  0.2693
 4258SOL    HW114215   7.026   3.595  11.108  0.6939 -0.3931  1.2800
 4258SOL    HW214216   6.968   3.455  11.101 -0.5542  0.1337  0.9043
 4259SOL     OW14217   3.001   4.267   0.439 -0.6204  0.3452 -0.4125
 4259SOL    HW114218   3.032   4.182   0.473 -0.6722  0.3614 -0.3229
 4259SOL    HW214219   2.954   4.305   0.513  0.0344  0.7820 -0.2100
 4260SOL     OW14220   4.965   3.808   7.086  0.4123 -0.1897 -0.4647
 4260SOL    HW114221   4.893   3.745   7.079  1.4156 -1.2298 -2.1522
 4260SOL    HW214222   5.043   3.758   7.060  1.4075  1.4711 -0.7859
 4261SOL     OW14223   5.662   4.531   7.173  0.3171 -0.2306  0.7997
 4261SOL    HW114224   5.689   4.463   7.235  0.9676 -0.4678  0.2619
 4261SOL    HW214225   5.712   4.608   7.198  0.6758 -0.3618  0.4989
 4262SOL     OW14226   7.407   4.124   3.935  0.2180  0.2422  0.0630
 4262SOL    HW114227   7.411   4.161   3.847 -0.3773 -0.3861 -0.2283
 4262SOL    HW214228   7.315   4.132   3.961  0.1143 -0.8629  0.0709
 4263SOL     OW14229   5.644   2.117   2.948 -0.3990 -0.1786 -0.5166
 4263SOL    HW114230   5.556   2.111   2.984 -0.1147 -1.9933 -0.0542
 4263SOL    HW214231   5.631   2.149   2.858 -1.4519  0.1677 -0.2515
 4264SOL     OW14232   7.524   7.857  10.956  0.3518 -0.0464  0.0042
 4264SOL    HW114233   7.593   7.811  10.910 -0.5175 -1.2368 -0.1597
 4264SOL    HW214234   7.450   7.857  10.895 -0.0159  0.5875  0.4371
 4265SOL     OW14235   1.749   4.427  11.926 -0.2069  0.0479  0.1148
 4265SOL    HW114236   1.821   4.366  11.913 -1.3658 -1.3701  0.1347
 4265SOL    HW214237   1.759   4.456  12.017  1.0311  0.8541 -0.2444
 4266SOL     OW14238   7.452   6.345   1.330  0.0677 -0.0353 -0.1273
 4266SOL    HW114239   7.403   6.396   1.396 -0.4865 -0.0987 -0.4830
 4266SOL    HW214240   7.384   6.313   1.270  0.3659 -1.4800  0.2750
 4267SOL     OW14241   5.512   1.433   2.016  0.5834  0.2208  0.3053
 4267SOL    HW114242   5.486   1.470   1.932 -0.0410 -0.7351  0.0595
 4267SOL    HW214243   5.585   1.376   1.996 -0.4779 -1.1326  0.1568
 4268SOL     OW14244   4.216   3.195   2.626  0.0047  0.0063 -0.1027
 4268SOL    HW114245   4.302   3.160   2.651  0.2317  1.3502  1.1294
 4268SOL    HW214246   4.168   3.201   2.709 -0.1482  2.2024 -0.2993
 4269SOL     OW14247   7.826   7.268   1.222 -0.0431 -0.0162  0.1113
 4269SOL    HW114248   7.741   7.230   1.243 -0.1701  0.5600  0.6975
 4269SOL    HW214249   7.887   7.195   1.225 -0.1849 -0.0937  1.7638
 4270SOL     OW14250   0.265   7.736   2.139  0.0187 -0.0977  0.1095
 4270SOL    HW114251   0.209   7.786   2.198 -0.1620 -0.7603  0.5125
 4270SOL    HW214252   0.230   7.647   2.143  1.1736 -0.5488  0.4502
 4271SOL     OW14253   7.352   4.478   7.708  0.1645  0.2642 -0.9870
 4271SOL    HW114254   7.358   4.517   7.621 -0.4360 -1.4893 -1.8547
 4271SOL    HW214255   7.262   4.446   7.714  0.7042 -1.2214 -0.4423
 4272SOL     OW14256   2.047   2.813   0.681 -0.3458  0.7568  0.0534
 4272SOL    HW114257   2.122   2.872   0.676  0.4969 -0.1665  1.1881
 4272SOL    HW214258   2.079   2.732   0.640 -0.7925  0.4384  0.3296
 4273SOL     OW14259   6.951   3.798   4.493 -0.1468 -0.5005  0.2778
 4273SOL    HW114260   6.931   3.855   4.567 -1.0257 -1.2109  0.6036
 4273SOL    HW214261   6.955   3.857   4.418 -1.8272 -0.0732  0.4696
 4274SOL     OW14262   0.020   5.745   2.348 -0.3335 -0.3732  0.3820
 4274SOL    HW114263   0.097   5.741   2.290  2.2888 -1.2495  3.6262
 4274SOL    HW214264  -0.053   5.763   2.289  2.1062 -0.9070 -3.1263
 4275SOL     OW14265   4.114   7.106   7.106  0.0957  0.1702  0.0092
 4275SOL    HW114266   4.141   7.075   7.019 -0.6831  1.2365 -0.6344
 4275SOL    HW214267   4.185   7.165   7.133 -0.1392  0.6369 -0.3673
 4276SOL     OW14268   0.445   7.361   9.277 -0.0497 -0.1491 -0.6568
 4276SOL    HW114269   0.407   7.296   9.336  0.6842  0.9113  1.0383
 4276SOL    HW214270   0.372   7.418   9.253 -0.5214 -1.0605 -1.4923
 4277SOL     OW14271   1.229   0.470   0.435 -0.2068  0.0566 -0.8280
 4277SOL    HW114272   1.297   0.412   0.469 -0.9895 -1.1469 -1.2820
 4277SOL    HW214273   1.268   0.558   0.441  0.3988 -0.3119  1.3162
 4278SOL     OW14274   3.962   7.210   9.416 -0.0305 -0.0749 -0.2183
 4278SOL    HW114275   3.910   7.130   9.423  0.3906 -0.4432 -1.0880
 4278SOL    HW214276   3.995   7.225   9.504  0.4966 -1.2968 -0.1835
 4279SOL     OW14277   5.583   7.803   7.038  0.6086  0.5852 -0.4832
 4279SOL    HW114278   5.657   7.825   7.095  0.6392 -2.0944  0.6441
 4279SOL    HW214279   5.506   7.826   7.090  0.6038  1.7627 -0.9737
 4280SOL     OW14280   7.072   2.864   8.276 -0.0815 -0.1081 -0.5985
 4280SOL    HW114281   7.113   2.787   8.315 -1.3519 -1.2902 -1.5293
 4280SOL    HW214282   7.145   2.922   8.255  0.7744 -0.0050  2.1826
 4281SOL     OW14283   1.777   2.433  11.909  0.1105  0.2792 -0.2366
 4281SOL    HW114284   1.861   2.414  11.866  0.5179  1.4594  0.0082
 4281SOL    HW214285   1.798   2.496  11.977 -0.9040  0.1738  0.1972
 4282SOL     OW14286   5.714   5.423   0.905  0.0137 -0.1180 -0.5463
 4282SOL    HW114287   5.748   5.512   0.915  1.3292 -0.7221  0.7135
 4282SOL    HW214288   5.621   5.431   0.925  0.2513  0.8721  0.2873
 4283SOL     OW14289   5.605   1.928  11.503 -0.1007  0.1464  0.3040
 4283SOL    HW114290   5.595   1.986  11.579  1.3930  1.9629 -0.7950
 4283SOL    HW214291   5.521   1.933  11.458 -0.1339  1.1861  0.4415
 4284SOL     OW14292   0.593   1.809  11.903 -0.6378 -0.0407  0.3608
 4284SOL    HW114293   0.665   1.872  11.905 -0.3810 -0.3400  0.7715
 4284SOL    HW214294   0.538   1.833  11.979 -0.2964 -0.5874  0.7853
 4285SOL     OW14295   2.791   0.900   6.600 -0.2197  0.7460  0.4086
 4285SOL    HW114296   2.748   0.863   6.677  1.8313  0.8426  1.6638
 4285SOL    HW214297   2.723   0.901   6.533 -1.3804 -1.7541  1.4261
 4286SOL     OW14298   4.673   1.864  10.878  0.1915 -0.1110  0.2577
 4286SOL    HW114299   4.608   1.905  10.821  0.4938  0.1717  0.1109
 4286SOL    HW214300   4.670   1.771  10.855  1.2658  0.1789 -1.1984
 4287SOL     OW14301   7.033   1.605  10.541 -0.4203  0.0131 -0.0399
 4287SOL    HW114302   6.979   1.570  10.612  0.9769  0.2908  1.2101
 4287SOL    HW214303   7.104   1.541  10.532 -0.5670 -0.0180 -1.2259
 4288SOL     OW14304   6.060   0.509   9.479  0.5549  0.3950 -0.0705
 4288SOL    HW114305   6.101   0.442   9.425  0.2340 -1.4681  1.8393
 4288SOL    HW214306   5.979   0.531   9.434  1.0514  0.0847 -1.1304
 4289SOL     OW14307   5.741   3.250   7.020  0.9936  0.3369  0.2079
 4289SOL    HW114308   5.650   3.224   7.005  1.0961 -1.0996  1.7149
 4289SOL    HW214309   5.736   3.336   7.060  0.3056  0.3256  0.1463
 4290SOL     OW14310   3.250   7.052   5.074  0.2445  0.7176  0.2667
 4290SOL    HW114311   3.217   7.055   4.984  0.2509  1.0648  0.2757
 4290SOL    HW214312   3.323   6.990   5.071 -0.4770 -0.1426  0.2713
 4291SOL     OW14313   1.197   7.442   0.009 -0.9242 -0.3002  0.1185
 4291SOL    HW114314   1.250   7.374   0.051  0.4301 -0.1241 -1.2299
 4291SOL    HW214315   1.209   7.519   0.064 -0.5643 -0.5233  0.3554
 4292SOL     OW14316   0.845   5.094   5.095  0.5977  0.4334 -0.4701
 4292SOL    HW114317   0.848   5.169   5.155 -1.6224  1.0058 -0.9956
 4292SOL    HW214318   0.906   5.031   5.133 -0.4660  0.8983  2.2384
 4293SOL     OW14319   7.502   0.610   1.886 -0.1937  0.0723 -0.3132
 4293SOL    HW114320   7.571   0.666   1.921 -0.8195  2.1286 -2.1086
 4293SOL    HW214321   7.421   0.652   1.915 -0.7434 -1.7104  0.8736
 4294SOL     OW14322   5.503   1.778  10.570 -0.4718 -0.2388  0.6847
 4294SOL    HW114323   5.581   1.827  10.595 -0.7098  0.8378 -0.6065
 4294SOL    HW214324   5.440   1.795  10.641  0.4598 -1.2221  1.8035
 4295SOL     OW14325   6.028   7.178   1.024 -0.5510 -0.0907  0.2043
 4295SOL    HW114326   6.038   7.269   0.997  0.7110 -0.6516 -1.4377
 4295SOL    HW214327   6.092   7.166   1.094 -0.0503  0.0839 -0.2102
 4296SOL     OW14328   5.503   1.449   1.067  0.5691  0.1219 -0.6942
 4296SOL    HW114329   5.562   1.391   1.115 -0.4631 -0.3342  0.0563
 4296SOL    HW214330   5.422   1.451   1.119  0.1824  1.3542 -1.2805
 4297SOL     OW14331   0.942   1.823   3.564  0.3207  0.6071 -0.8689
 4297SOL    HW114332   1.029   1.785   3.569  0.1601  0.4251  1.7380
 4297SOL    HW214333   0.894   1.766   3.504  1.2256 -0.9256 -0.1742
 4298SOL     OW14334   4.039   7.944  10.031  0.4652  0.1110  0.2022
 4298SOL    HW114335   4.021   7.971  10.121  1.6666  1.6285  0.0352
 4298SOL    HW214336   4.131   7.968  10.018  0.9775 -2.1097 -0.7336
 4299SOL     OW14337   0.222   2.194  10.790 -0.0770  0.0253 -0.4685
 4299SOL    HW114338   0.311   2.159  10.784 -0.3297 -0.4371 -1.7859
 4299SOL    HW214339   0.233   2.278  10.834  1.0844  0.1924 -1.0342
 4300SOL     OW14340   6.301   2.949   0.563  0.2397 -0.1696  0.6145
 4300SOL    HW114341   6.349   3.025   0.530  0.6957 -0.3978  0.7465
 4300SOL    HW214342   6.325   2.878   0.504 -0.0311 -0.2598  0.6097
 4301SOL     OW14343   3.851   4.180   8.676 -0.0790  0.1725 -0.6644
 4301SOL    HW114344   3.877   4.174   8.768  2.4635 -1.3433 -1.3881
 4301SOL    HW214345   3.921   4.230   8.634  0.3945 -1.7018 -2.2565
 4302SOL     OW14346   5.472   6.953   5.985  0.2172 -0.2512  0.4940
 4302SOL    HW114347   5.428   6.961   5.901  1.6785 -1.5196 -0.4498
 4302SOL    HW214348   5.563   6.975   5.967  0.5727 -0.6198  1.7303
 4303SOL     OW14349   1.425   3.559   2.497  0.0880  0.0850  0.6274
 4303SOL    HW114350   1.373   3.634   2.527 -0.3013  0.9266 -1.9032
 4303SOL    HW214351   1.472   3.591   2.420  1.8424 -1.6147  0.9113
 4304SOL     OW14352   5.734   4.391   0.407 -0.1564 -0.3501 -0.0427
 4304SOL    HW114353   5.649   4.353   0.429 -0.3979 -0.4191 -1.0389
 4304SOL    HW214354   5.719   4.437   0.324  0.6181  0.2118  0.1119
 4305SOL     OW14355   1.657   1.138   8.364 -0.1883  1.0844 -0.1664
 4305SOL    HW114356   1.746   1.167   8.384  0.9252 -1.1317 -1.5663
 4305SOL    HW214357   1.615   1.125   8.449  1.5484  0.1120  0.5820
 4306SOL     OW14358   0.691   0.917   2.323 -0.0749 -0.4190  0.4006
 4306SOL    HW114359   0.705   0.854   2.252 -1.6394  0.0080 -0.3347
 4306SOL    HW214360   0.655   0.994   2.280  0.9841  0.6847  1.4068
 4307SOL     OW14361   1.803   4.907   4.354  0.7300 -0.0796  0.1736
 4307SOL    HW114362   1.763   4.890   4.439  1.7622 -0.6651  0.5609
 4307SOL    HW214363   1.870   4.973   4.371  0.2128  0.6104 -0.3963
 4308SOL     OW14364   5.141   7.280   9.588 -0.2031  0.7778 -0.2009
 4308SOL    HW114365   5.230   7.314   9.583  1.6281 -3.0223  2.1260
 4308SOL    HW214366   5.133   7.223   9.511  0.6577 -1.2924  1.1709
 4309SOL     OW14367   7.116   1.884  11.248 -0.6266  0.1885  0.5299
 4309SOL    HW114368   7.036   1.913  11.292 -1.0747  0.7862 -0.6311
 4309SOL    HW214369   7.101   1.791  11.231 -1.1161  0.3188  0.2366
 4310SOL     OW14370   7.351   4.099  12.016 -0.2803  0.3740  0.4644
 4310SOL    HW114371   7.367   4.052  11.934  2.0864  3.1935 -0.9093
 4310SOL    HW214372   7.430   4.085  12.067 -1.2490 -0.3830  1.8035
 4311SOL     OW14373   4.421   4.649   2.212 -0.9558  0.6518  0.3995
 4311SOL    HW114374   4.512   4.638   2.239 -1.2091 -0.1842  0.9564
 4311SOL    HW214375   4.399   4.739   2.235 -0.4520  0.6690  0.8205
 4312SOL     OW14376   1.641   2.446  10.447  0.2483 -0.1286 -0.4719
 4312SOL    HW114377   1.585   2.437  10.524 -0.2780  1.1603 -0.6816
 4312SOL    HW214378   1.607   2.383  10.384 -0.9404  0.5779 -0.5690
 4313SOL     OW14379   5.060   3.081   1.931 -0.1935  0.4390 -0.0548
 4313SOL    HW114380   5.136   3.133   1.907 -1.0658  2.9883  2.2808
 4313SOL    HW214381   4.996   3.099   1.862  0.2556  0.6983 -0.4065
 4314SOL     OW14382   2.307   5.112   0.979 -0.2704 -0.8479  0.5751
 4314SOL    HW114383   2.387   5.061   0.985  0.0336 -0.2594  2.2496
 4314SOL    HW214384   2.334   5.202   0.997 -1.0416 -0.3415 -0.6932
 4315SOL     OW14385   0.487   2.945  12.266  0.1465 -0.6732 -0.6169
 4315SOL    HW114386   0.481   2.910  12.355 -0.7944  1.8667  0.4182
 4315SOL    HW214387   0.575   2.984  12.262  0.2119 -0.8418 -0.8295
 4316SOL     OW14388   0.523   4.961   2.372 -0.2884  0.0266  0.0784
 4316SOL    HW114389   0.495   5.049   2.346 -1.1822 -0.0008  0.8926
 4316SOL    HW214390   0.580   4.977   2.448  1.5985  0.0500 -1.2669
 4317SOL     OW14391   7.404   0.970   0.701 -0.3295  0.6153 -0.2017
 4317SOL    HW114392   7.359   0.908   0.758  0.5800  0.1127 -0.0238
 4317SOL    HW214393   7.396   0.931   0.613  0.5147  0.0735 -0.0466
 4318SOL     OW14394   2.346   6.645  12.353 -0.0879 -0.1412 -0.6978
 4318SOL    HW114395   2.427   6.689  12.327  0.6655 -0.3392  1.1390
 4318SOL    HW214396   2.310   6.701  12.422 -0.2886 -1.2290  0.1126
 4319SOL     OW14397   5.023   0.894   2.666  0.4693 -0.5306 -0.2917
 4319SOL    HW114398   5.062   0.977   2.640 -1.0623 -0.5920 -3.2349
 4319SOL    HW214399   4.944   0.919   2.716 -0.9973 -0.0305 -2.6908
 4320SOL     OW14400   6.081   4.763   6.567 -0.9983 -0.0171  0.1931
 4320SOL    HW114401   6.144   4.824   6.606 -1.4862  0.6568 -0.0527
 4320SOL    HW214402   5.996   4.798   6.592 -1.2855 -1.2579  1.0395
 4321SOL     OW14403   4.189   7.445  11.744 -0.1155  0.1745  0.2852
 4321SOL    HW114404   4.137   7.391  11.804  1.6419 -1.0624  0.7664
 4321SOL    HW214405   4.175   7.404  11.658  0.9173 -0.8671  0.5913
 4322SOL     OW14406   6.544   4.240   1.647  0.3760  0.1655 -0.8044
 4322SOL    HW114407   6.521   4.240   1.554  1.2842  1.3118 -1.0488
 4322SOL    HW214408   6.622   4.184   1.652  1.5132  1.6749 -1.0768
 4323SOL     OW14409   1.787   4.806   1.349 -0.2705  0.1447 -0.7931
 4323SOL    HW114410   1.765   4.747   1.277  1.2334  0.1400 -1.2861
 4323SOL    HW214411   1.767   4.893   1.315 -3.2822 -0.0401  0.2287
 4324SOL     OW14412   5.573   2.048   5.461 -0.2120 -0.0212 -0.3023
 4324SOL    HW114413   5.616   1.964   5.478 -0.6294  0.0532  1.2925
 4324SOL    HW214414   5.645   2.107   5.436  0.3590 -0.3615  0.4949
 4325SOL     OW14415   6.834   5.736   2.883 -0.5344 -0.1220  0.3579
 4325SOL    HW114416   6.836   5.831   2.870  0.2814  0.0048  1.2876
 4325SOL    HW214417   6.894   5.701   2.818  0.6416  0.1807  1.2475
 4326SOL     OW14418   5.658   0.635   2.189  0.0409  0.5168 -0.5312
 4326SOL    HW114419   5.580   0.685   2.215  1.9606  2.4797  1.8650
 4326SOL    HW214420   5.696   0.686   2.118 -0.5613 -0.2174 -1.4098
 4327SOL     OW14421   4.432   5.311   4.443  0.1657  0.2411  0.0624
 4327SOL    HW114422   4.372   5.385   4.440 -0.5408 -0.3293 -0.3349
 4327SOL    HW214423   4.510   5.344   4.489 -0.2121  1.1589  0.0591
 4328SOL     OW14424   2.501   0.651   6.369  0.9941 -0.2483 -0.1925
 4328SOL    HW114425   2.479   0.726   6.313  0.9652 -0.7411 -0.8483
 4328SOL    HW214426   2.451   0.666   6.450 -0.4349 -0.4826 -1.0105
 4329SOL     OW14427   6.494   4.320  10.389  0.0894 -0.2185  0.0024
 4329SOL    HW114428   6.402   4.297  10.406 -0.2203 -0.1734 -1.4975
 4329SOL    HW214429   6.495   4.349  10.298  1.5050  0.3286  0.1690
 4330SOL     OW14430   0.587   2.251   5.157  0.4579  0.3332  0.3441
 4330SOL    HW114431   0.669   2.204   5.141  0.2987 -0.4321  1.6357
 4330SOL    HW214432   0.612   2.343   5.155  1.5967  0.1073  1.7759
 4331SOL     OW14433   4.808   7.769   2.470 -0.3869  0.7847 -0.0979
 4331SOL    HW114434   4.813   7.856   2.432  0.7768  0.9630  0.4449
 4331SOL    HW214435   4.771   7.783   2.557 -0.9807  0.6254 -0.3154
 4332SOL     OW14436   1.992   5.988   6.892 -0.2274 -0.1456 -0.1685
 4332SOL    HW114437   1.990   5.893   6.909  2.2890 -0.6616 -2.1670
 4332SOL    HW214438   2.018   5.995   6.800 -1.2165  2.5318 -0.3277
 4333SOL     OW14439   1.230   6.623   3.435 -0.4383  0.0538  0.2743
 4333SOL    HW114440   1.220   6.570   3.514 -2.1501 -0.9165 -0.5253
 4333SOL    HW214441   1.147   6.612   3.388 -0.2129  2.1342 -0.7508
 4334SOL     OW14442   7.710   4.437   5.975  0.6164 -0.4170  0.7172
 4334SOL    HW114443   7.684   4.399   5.891  1.1430 -3.1807  1.7189
 4334SOL    HW214444   7.771   4.508   5.951 -1.9734  1.3220 -1.3156
 4335SOL     OW14445   3.720   4.226   7.822 -0.3868 -0.1930 -0.0798
 4335SOL    HW114446   3.630   4.248   7.842  0.1315  2.0715  0.0641
 4335SOL    HW214447   3.725   4.230   7.726 -0.4959 -0.6146 -0.1047
 4336SOL     OW14448   0.459   1.608   5.181  0.1053 -0.2765  0.1254
 4336SOL    HW114449   0.388   1.609   5.245 -0.9753  0.9995 -1.0279
 4336SOL    HW214450   0.433   1.541   5.118 -1.2269  1.6207 -1.4527
 4337SOL     OW14451   4.764   0.661   7.679  0.3748 -0.2069 -0.0966
 4337SOL    HW114452   4.722   0.680   7.595  0.6989 -1.6103 -0.6071
 4337SOL    HW214453   4.698   0.612   7.728  0.5303 -0.2258  0.0936
 4338SOL     OW14454   0.485   6.064   6.875 -0.0355  0.2947  0.9930
 4338SOL    HW114455   0.513   5.981   6.835  1.4306  0.6458  1.2188
 4338SOL    HW214456   0.398   6.079   6.840  0.5241 -0.2642 -0.7682
 4339SOL     OW14457   0.640   7.609   0.238  0.2115 -0.1522  0.2749
 4339SOL    HW114458   0.702   7.536   0.247 -0.8696 -1.0056  0.9749
 4339SOL    HW214459   0.685   7.671   0.180  1.0071 -1.5458 -0.6583
 4340SOL     OW14460   7.497   7.333   3.232 -0.2342  0.3672  0.5740
 4340SOL    HW114461   7.558   7.280   3.285 -1.0171  0.3129  1.4425
 4340SOL    HW214462   7.446   7.268   3.184 -1.4985  0.2704  1.9753
 4341SOL     OW14463   7.252   0.989   2.879 -0.5775  0.5015 -0.5123
 4341SOL    HW114464   7.175   0.934   2.863  0.0170 -0.6594  0.4696
 4341SOL    HW214465   7.326   0.933   2.858  0.0747  0.5544  1.4548
 4342SOL     OW14466   4.283   1.261   5.354 -0.2787  0.3788 -0.0885
 4342SOL    HW114467   4.377   1.274   5.363 -0.1902  0.4970 -1.1070
 4342SOL    HW214468   4.272   1.223   5.267 -0.8954 -2.6583  1.1855
 4343SOL     OW14469   3.331   5.622  10.892  0.6368  0.6402  0.1714
 4343SOL    HW114470   3.308   5.540  10.849 -0.6310  0.8520  0.3974
 4343SOL    HW214471   3.426   5.630  10.881  0.8128 -0.9601  0.3444
 4344SOL     OW14472   0.270   7.123   1.296  0.4693 -0.3735 -0.6890
 4344SOL    HW114473   0.296   7.165   1.378 -0.8474  0.7240 -0.8002
 4344SOL    HW214474   0.177   7.104   1.308  0.4730 -1.0250 -1.6028
 4345SOL     OW14475   7.512   3.336   4.436  0.3146 -0.3924 -0.0987
 4345SOL    HW114476   7.582   3.395   4.462 -0.0283 -0.0694  0.1018
 4345SOL    HW214477   7.474   3.377   4.358  1.1532 -1.2087 -0.9719
 4346SOL     OW14478   7.921   2.187   2.094  0.6587  0.1581 -0.0658
 4346SOL    HW114479   7.930   2.124   2.165 -0.2831 -2.7319 -2.3033
 4346SOL    HW214480   7.831   2.218   2.100  0.6680  0.1351  0.1859
 4347SOL     OW14481   5.931   3.841  12.399 -0.2024  0.1946  0.2318
 4347SOL    HW114482   5.866   3.775  12.425 -0.2402  0.5057  0.9577
 4347SOL    HW214483   6.015   3.804  12.425 -0.3159  0.9081  1.7044
 4348SOL     OW14484   0.426   1.646  11.577  0.0538  0.2215  0.3651
 4348SOL    HW114485   0.375   1.590  11.635 -1.6670  0.7681 -0.5294
 4348SOL    HW214486   0.404   1.735  11.604  1.8614  0.5006  1.0272
 4349SOL     OW14487   3.032   5.010   3.772 -1.1055 -0.0161  0.2694
 4349SOL    HW114488   3.096   5.004   3.702 -1.4854 -0.5955 -0.0397
 4349SOL    HW214489   2.969   4.940   3.753 -2.9745  1.7867 -0.5982
 4350SOL     OW14490   3.940   5.554   0.261  0.1231 -0.5863  0.3999
 4350SOL    HW114491   3.847   5.552   0.238  0.4959 -1.5964 -1.1920
 4350SOL    HW214492   3.963   5.461   0.272  0.5199 -0.2645  2.7828
 4351SOL     OW14493   5.236   2.397   9.672  0.0828  0.0311 -0.1283
 4351SOL    HW114494   5.252   2.476   9.620 -2.1814  0.2191 -0.6485
 4351SOL    HW214495   5.324   2.364   9.693  1.0872  1.2941 -2.0153
 4352SOL     OW14496   7.660   2.363   9.299 -0.2684  0.3033  0.3560
 4352SOL    HW114497   7.622   2.451   9.294 -0.7828  0.3117  2.8176
 4352SOL    HW214498   7.754   2.378   9.299 -0.1233  0.4401 -3.5951
 4353SOL     OW14499   4.445   5.263   5.384  0.1825 -0.0422 -0.3732
 4353SOL    HW114500   4.449   5.359   5.378 -0.4547  0.0114  0.0046
 4353SOL    HW214501   4.398   5.246   5.466  0.0189 -0.6776 -0.5940
 4354SOL     OW14502   5.861   4.244  11.010 -0.1162 -0.1074 -0.1868
 4354SOL    HW114503   5.771   4.262  10.983  0.1366 -0.9566 -1.7289
 4354SOL    HW214504   5.912   4.316  10.971 -0.0210 -0.1418 -0.1248
 4355SOL     OW14505   2.570   7.854   7.238  0.2648 -0.5546 -0.1793
 4355SOL    HW114506   2.487   7.897   7.215  1.1068  1.2036 -0.1032
 4355SOL    HW214507   2.582   7.787   7.171 -0.6750 -0.0758 -0.8508
 4356SOL     OW14508   4.973   3.275   7.909  0.5331  0.0169  0.3390
 4356SOL    HW114509   5.046   3.272   7.848 -0.5469  0.5538 -1.0309
 4356SOL    HW214510   4.905   3.222   7.868  0.2078 -0.6813  1.7058
 4357SOL     OW14511   7.401   7.822   0.547 -0.3546  0.1423 -0.8178
 4357SOL    HW114512   7.350   7.880   0.603 -0.7115 -0.4332 -0.5373
 4357SOL    HW214513   7.470   7.788   0.605 -1.5790 -1.5769 -0.2983
 4358SOL     OW14514   3.987   1.868   7.272  0.4405  0.3397 -0.1971
 4358SOL    HW114515   4.010   1.815   7.347 -1.1962  1.4200  1.1505
 4358SOL    HW214516   3.932   1.938   7.308 -0.6294  0.7426 -2.4307
 4359SOL     OW14517   1.653   5.069   9.799 -0.1418 -0.0732  0.4197
 4359SOL    HW114518   1.694   5.132   9.740  1.4664 -1.1322  0.3413
 4359SOL    HW214519   1.606   5.122   9.862  0.6099  1.1789 -0.0458
 4360SOL     OW14520   5.570   0.539   3.864  0.4983  0.1358 -0.0467
 4360SOL    HW114521   5.603   0.449   3.861 -1.0954 -0.4757 -2.3060
 4360SOL    HW214522   5.510   0.540   3.938  1.8643 -0.0968  1.1072
 4361SOL     OW14523   6.738   6.217   2.396 -0.5220  0.1126 -0.1574
 4361SOL    HW114524   6.803   6.202   2.465 -1.6228 -1.5677  0.5898
 4361SOL    HW214525   6.654   6.219   2.442 -1.2113 -0.2301 -1.3598
 4362SOL     OW14526   7.902   5.818  12.407  0.0013 -0.5977 -0.2592
 4362SOL    HW114527   7.910   5.900  12.456 -0.1940 -0.9388  0.3386
 4362SOL    HW214528   7.833   5.769  12.451 -1.0216 -0.4133 -1.5831
 4363SOL     OW14529   1.066   7.371   8.056  0.1188  0.3396 -0.6186
 4363SOL    HW114530   0.974   7.384   8.080 -0.3549 -3.6762  0.4590
 4363SOL    HW214531   1.113   7.372   8.139  0.8919  1.0537 -1.0465
 4364SOL     OW14532   6.741   2.923   7.223  0.2623  0.5460 -0.3042
 4364SOL    HW114533   6.809   2.922   7.155 -1.0233 -2.5137 -1.7760
 4364SOL    HW214534   6.659   2.912   7.174 -0.6439 -2.8219  1.6669
 4365SOL     OW14535   3.825   2.837   9.189  0.1810  0.9111 -0.5882
 4365SOL    HW114536   3.861   2.823   9.276  1.0081  0.0694 -1.0507
 4365SOL    HW214537   3.755   2.901   9.202  0.0007  0.4689  0.7601
 4366SOL     OW14538   5.632   1.072   3.285 -0.4337 -0.1393  0.5356
 4366SOL    HW114539   5.602   1.146   3.338 -1.3174  0.4833 -0.7804
 4366SOL    HW214540   5.663   1.111   3.203  0.1960 -1.1330  0.2791
 4367SOL     OW14541   2.977   3.065   3.904  0.2266  0.9245  0.4296
 4367SOL    HW114542   2.946   3.121   3.834  0.6076  2.1855  1.2349
 4367SOL    HW214543   3.007   3.125   3.972 -1.5088 -0.1798  2.3373
 4368SOL     OW14544   1.987   6.706   2.453 -0.0134 -0.2712 -0.3674
 4368SOL    HW114545   1.919   6.641   2.436  0.0111  0.0111 -1.5919
 4368SOL    HW214546   2.008   6.694   2.546 -1.9600 -0.1469  0.1303
 4369SOL     OW14547   3.456   6.093   3.982 -0.5047  0.1151  0.0124
 4369SOL    HW114548   3.439   5.999   3.984 -0.2637  0.0691  0.0285
 4369SOL    HW214549   3.440   6.119   3.891 -0.4075  0.0252 -0.0311
 4370SOL     OW14550   4.913   0.565   3.263  0.0448 -0.0532 -0.5346
 4370SOL    HW114551   4.983   0.522   3.313  1.0539  0.6852 -1.2714
 4370SOL    HW214552   4.958   0.607   3.190 -1.0846  1.0484 -0.6340
 4371SOL     OW14553   6.004   3.983   1.261 -0.4539  0.1209 -0.5544
 4371SOL    HW114554   5.996   3.918   1.331  1.6488  1.2028  0.8381
 4371SOL    HW214555   5.927   4.038   1.271 -0.6552 -0.2956  0.3403
 4372SOL     OW14556   3.492   7.745   6.210  0.2970 -0.0177  0.4158
 4372SOL    HW114557   3.438   7.713   6.138 -0.2282  0.0249  0.7800
 4372SOL    HW214558   3.527   7.829   6.179  0.0505  0.0147  0.2217
 4373SOL     OW14559   3.035   3.724  11.853  0.3811 -0.3319  0.1816
 4373SOL    HW114560   3.045   3.634  11.884 -1.4778 -1.0859 -1.2451
 4373SOL    HW214561   3.069   3.722  11.763  3.0081  1.1285  1.0484
 4374SOL     OW14562   5.830   0.269  10.001 -0.1554 -0.0081 -0.0649
 4374SOL    HW114563   5.757   0.328   9.984 -0.4411 -0.3885 -0.1869
 4374SOL    HW214564   5.856   0.237   9.914  0.3704  0.3725 -0.0516
 4375SOL     OW14565   3.475   2.261   7.509  0.0955  0.0066  0.0979
 4375SOL    HW114566   3.422   2.186   7.480 -1.7027  0.3793  2.1439
 4375SOL    HW214567   3.515   2.294   7.429  0.4592 -2.7494 -0.9552
 4376SOL     OW14568   1.685   4.408   5.441  0.0353  0.5164  0.1697
 4376SOL    HW114569   1.714   4.463   5.369 -1.1680  1.2596  0.2293
 4376SOL    HW214570   1.659   4.325   5.400  0.7519  0.4064 -0.0618
 4377SOL     OW14571   0.514   4.053   5.995  1.2107  0.1443  0.1537
 4377SOL    HW114572   0.600   4.089   5.972  0.8732  0.3864 -0.7247
 4377SOL    HW214573   0.472   4.034   5.912  0.6803 -0.6360  0.5889
 4378SOL     OW14574   3.325   1.382   4.125 -0.1093  0.5448 -0.3087
 4378SOL    HW114575   3.376   1.355   4.049 -0.0506 -0.5972  0.1213
 4378SOL    HW214576   3.369   1.342   4.199 -1.1070  0.2790  0.1648
 4379SOL     OW14577   7.226   6.575   2.162  0.7903 -0.3094 -0.1000
 4379SOL    HW114578   7.145   6.618   2.133  1.4427  0.0184 -1.5346
 4379SOL    HW214579   7.279   6.646   2.199  1.1343 -0.1898 -0.8062
 4380SOL     OW14580   0.244   1.340   9.580 -0.1584  0.4052  0.4941
 4380SOL    HW114581   0.245   1.325   9.675 -1.2007  2.0110  0.7983
 4380SOL    HW214582   0.227   1.434   9.571  0.5758  0.4038 -1.2918
 4381SOL     OW14583   1.533   5.662   1.660  0.2848  0.1424 -0.1045
 4381SOL    HW114584   1.573   5.628   1.579  0.3360 -0.3644  0.1290
 4381SOL    HW214585   1.441   5.640   1.652  0.5514 -1.5017  0.7408
 4382SOL     OW14586   0.567   3.401   1.992 -0.6764  0.3369  0.6181
 4382SOL    HW114587   0.579   3.494   1.976 -1.6259  0.2873 -0.4809
 4382SOL    HW214588   0.653   3.362   1.975  0.1096  1.1504  2.4598
 4383SOL     OW14589   7.129   5.399   7.096  0.2972  0.1358  0.0444
 4383SOL    HW114590   7.083   5.325   7.136 -1.6322  1.4498  0.4137
 4383SOL    HW214591   7.154   5.367   7.009 -1.6271 -0.5857 -0.2959
 4384SOL     OW14592   2.985   1.704  12.318  0.2587  0.1506 -0.1222
 4384SOL    HW114593   2.927   1.647  12.369  0.8797  0.4878  0.9949
 4384SOL    HW214594   2.931   1.779  12.296 -0.6546 -0.9501 -1.8496
 4385SOL     OW14595   4.552   7.329   5.774  0.2967 -0.2659 -0.5353
 4385SOL    HW114596   4.559   7.409   5.827 -1.6619 -2.0594  2.7607
 4385SOL    HW214597   4.457   7.318   5.762  0.4238 -2.8135  0.3771
 4386SOL     OW14598   1.882   6.984   2.296 -0.1216 -0.3223 -0.4730
 4386SOL    HW114599   1.846   6.917   2.354 -0.7895 -0.3158 -0.8696
 4386SOL    HW214600   1.812   7.000   2.232  0.2832  0.2798 -0.7690
 4387SOL     OW14601   6.369   2.583   1.016  0.3009  0.2038  0.5537
 4387SOL    HW114602   6.387   2.670   0.980  2.5695 -0.1961  0.5694
 4387SOL    HW214603   6.433   2.526   0.975 -0.4497 -1.2825  1.3513
 4388SOL     OW14604   6.558   5.838   6.433  0.1479  0.4958 -0.4493
 4388SOL    HW114605   6.581   5.849   6.341  0.8815  1.7993 -0.1461
 4388SOL    HW214606   6.642   5.844   6.479 -0.1046 -1.0478  0.2519
 4389SOL     OW14607   3.709   2.422   9.866 -0.1676  0.1560  0.6850
 4389SOL    HW114608   3.742   2.334   9.850 -1.4580 -0.2136 -0.0284
 4389SOL    HW214609   3.702   2.461   9.779  2.7971  1.9176  1.0824
 4390SOL     OW14610   6.152   2.211   8.975  0.3382 -0.0751  0.1247
 4390SOL    HW114611   6.159   2.121   8.943 -0.2858 -0.6983  1.6332
 4390SOL    HW214612   6.073   2.246   8.933  0.4865 -0.2838 -0.3329
 4391SOL     OW14613   6.713   2.901   6.384 -0.7612 -0.5323  0.1372
 4391SOL    HW114614   6.727   2.995   6.393 -1.1988 -0.3208 -1.0828
 4391SOL    HW214615   6.674   2.874   6.467  0.1768  0.1870  0.8371
 4392SOL     OW14616   0.945   6.456   0.691  0.2202  0.1147 -0.0025
 4392SOL    HW114617   0.965   6.374   0.645  1.1845 -0.4607  1.3670
 4392SOL    HW214618   0.959   6.524   0.625 -0.1151 -0.7758 -1.0290
 4393SOL     OW14619   2.530   7.204   3.440 -0.8092  0.1001  0.4251
 4393SOL    HW114620   2.590   7.278   3.443  0.1215 -0.4177 -2.3171
 4393SOL    HW214621   2.457   7.230   3.495 -0.3817  2.9515 -0.1863
 4394SOL     OW14622   7.353   2.450   8.317 -0.3269 -0.0067 -0.1198
 4394SOL    HW114623   7.418   2.467   8.249 -0.0107  0.9597  0.3999
 4394SOL    HW214624   7.387   2.374   8.364  1.7104  1.8369  1.6101
 4395SOL     OW14625   0.439   2.483  12.026 -0.0213 -0.4911 -0.7610
 4395SOL    HW114626   0.506   2.416  12.035 -1.2074 -1.6904 -0.4324
 4395SOL    HW214627   0.479   2.562  12.061  0.8185 -1.4487  0.5237
 4396SOL     OW14628   6.425   2.492   6.350  0.0050 -0.1511  0.9343
 4396SOL    HW114629   6.505   2.544   6.351 -0.3355  0.4667 -0.8459
 4396SOL    HW214630   6.449   2.410   6.307 -0.7671  0.9234 -1.7039
 4397SOL     OW14631   4.157   5.851   9.138  0.0363  0.2520  0.0653
 4397SOL    HW114632   4.086   5.809   9.186  0.2216  1.5136  1.5096
 4397SOL    HW214633   4.233   5.796   9.155 -0.3930 -0.6309 -0.7878
 4398SOL     OW14634   2.670   0.321  11.120 -0.6859 -0.3443  0.0778
 4398SOL    HW114635   2.695   0.412  11.137  1.3454 -0.7696 -0.3357
 4398SOL    HW214636   2.727   0.294  11.047 -1.2420 -1.9371  0.1977
 4399SOL     OW14637   7.591   7.897   5.138  0.1649 -0.4720 -0.3150
 4399SOL    HW114638   7.657   7.871   5.073 -0.3421  0.0427 -1.0528
 4399SOL    HW214639   7.569   7.815   5.184  1.0108 -0.7188 -0.3376
 4400SOL     OW14640   7.746   6.800   2.737  0.0914  0.3188  0.2499
 4400SOL    HW114641   7.830   6.811   2.692  0.6557  0.6141  1.3191
 4400SOL    HW214642   7.729   6.886   2.777 -0.0835 -0.0791  1.0696
 4401SOL     OW14643   7.373   6.035   5.657 -0.4253 -0.3566  0.0910
 4401SOL    HW114644   7.344   5.960   5.710 -0.2187 -0.7463 -0.3450
 4401SOL    HW214645   7.292   6.072   5.622 -0.6314  0.3380  1.2390
 4402SOL     OW14646   2.637   5.613   1.001  0.1061 -0.2630  0.1052
 4402SOL    HW114647   2.565   5.584   1.058 -0.5776  0.5450 -0.3214
 4402SOL    HW214648   2.668   5.533   0.959  0.0854 -0.7561  1.0060
 4403SOL     OW14649   5.200   1.448   9.614 -0.3416 -0.5526  0.3510
 4403SOL    HW114650   5.184   1.368   9.565 -0.1608 -0.7234  0.5712
 4403SOL    HW214651   5.295   1.459   9.612 -0.4623  0.6832 -1.3122
 4404SOL     OW14652   6.437   1.568   4.417  0.4026  0.0593  0.3320
 4404SOL    HW114653   6.346   1.572   4.387  0.0231  0.2773  1.4464
 4404SOL    HW214654   6.433   1.518   4.498  1.3457 -0.2588  0.1971
 4405SOL     OW14655   5.964   6.113  10.187  0.7162 -0.6175 -0.2504
 4405SOL    HW114656   6.016   6.141  10.112  1.2446  1.6805  0.8914
 4405SOL    HW214657   6.006   6.032  10.216  2.2644 -0.0189 -0.7206
 4406SOL     OW14658   3.767   6.308   1.588 -0.5159  0.5341  0.0133
 4406SOL    HW114659   3.673   6.323   1.599 -0.5552  0.5861 -0.3782
 4406SOL    HW214660   3.781   6.219   1.622  0.0456  1.9716  4.1271
 4407SOL     OW14661   6.770   6.580   5.978  0.5550 -0.2439  0.4102
 4407SOL    HW114662   6.772   6.632   6.058  2.3602  2.9098 -1.4751
 4407SOL    HW214663   6.858   6.589   5.941  0.5926 -3.7039 -0.7688
 4408SOL     OW14664   0.408   1.278   6.335  0.2491 -0.2354  0.0925
 4408SOL    HW114665   0.485   1.333   6.345 -1.9839  3.1867  0.0261
 4408SOL    HW214666   0.379   1.293   6.245  0.3939 -2.8585 -0.4789
 4409SOL     OW14667   4.953   5.854   8.644  0.0855  0.5237 -0.2989
 4409SOL    HW114668   4.963   5.948   8.630 -0.2961  0.3836 -1.6870
 4409SOL    HW214669   5.042   5.819   8.634  0.0303  0.5972 -1.1343
 4410SOL     OW14670   1.607   6.846   7.087  0.6440  0.0403 -0.1233
 4410SOL    HW114671   1.655   6.784   7.033  0.2926 -0.8265  0.5292
 4410SOL    HW214672   1.555   6.898   7.025 -0.8223 -1.8549 -0.5551
 4411SOL     OW14673   2.324   4.988   5.102  0.2651 -0.1286  0.5465
 4411SOL    HW114674   2.418   5.005   5.110  0.5464 -1.3306 -0.0255
 4411SOL    HW214675   2.307   4.917   5.165  0.2652 -1.6648 -1.1142
 4412SOL     OW14676   6.518   0.952   9.451 -0.1434 -0.3341 -0.2671
 4412SOL    HW114677   6.606   0.915   9.447  0.4060  1.0302 -2.1018
 4412SOL    HW214678   6.530   1.038   9.490 -0.1175  1.1227 -3.2730
 4413SOL     OW14679   6.390   7.424   8.428 -0.1222 -0.1152 -0.2190
 4413SOL    HW114680   6.475   7.458   8.400 -0.3377  0.9720  0.3892
 4413SOL    HW214681   6.341   7.413   8.346  0.5264 -0.5747 -0.5582
 4414SOL     OW14682   5.934   5.150   0.330  0.0508  0.1987 -0.4513
 4414SOL    HW114683   5.976   5.066   0.313 -0.8169  0.2907 -3.5290
 4414SOL    HW214684   5.847   5.126   0.364 -0.1879 -0.1746 -1.2994
 4415SOL     OW14685   4.882   6.842   8.420  0.2245  0.0874 -0.6779
 4415SOL    HW114686   4.917   6.929   8.441 -0.9516  0.4015  0.0883
 4415SOL    HW214687   4.840   6.813   8.501  2.4889 -2.2010 -0.1696
 4416SOL     OW14688   6.773   0.305   9.073  0.4411 -0.0425  0.0876
 4416SOL    HW114689   6.816   0.280   8.991 -0.8095  1.2468 -1.0402
 4416SOL    HW214690   6.808   0.392   9.093  1.7941 -0.9122  1.7596
 4417SOL     OW14691   5.730   0.373   5.246 -0.2375 -0.2968  0.0383
 4417SOL    HW114692   5.754   0.462   5.224  1.0392 -0.8281 -0.7915
 4417SOL    HW214693   5.680   0.341   5.171  0.6519 -0.7779 -0.3669
 4418SOL     OW14694   6.561   1.855  10.967 -0.1195 -0.1438 -0.0780
 4418SOL    HW114695   6.495   1.796  11.003  0.4255 -1.5187 -1.2274
 4418SOL    HW214696   6.513   1.935  10.947 -1.1184 -0.5767  0.5002
 4419SOL     OW14697   2.006   4.248   2.419  0.2754 -0.2726 -0.4500
 4419SOL    HW114698   1.960   4.279   2.341 -0.2995 -0.4461 -0.1820
 4419SOL    HW214699   2.057   4.174   2.388  1.2815  0.6105 -0.9941
 4420SOL     OW14700   7.528   6.089   1.866  0.1977 -0.1895 -0.6969
 4420SOL    HW114701   7.540   5.996   1.844  1.3591 -0.5251  1.1371
 4420SOL    HW214702   7.463   6.088   1.936  0.3044  0.3814 -0.5902
 4421SOL     OW14703   1.080   4.180  11.248  0.3610  0.3275 -0.2884
 4421SOL    HW114704   1.100   4.099  11.295  0.0287  0.2218 -0.3272
 4421SOL    HW214705   1.027   4.151  11.174  1.1142  0.4613 -0.8854
 4422SOL     OW14706   2.490   2.432   2.866 -0.3009 -0.4779  0.6757
 4422SOL    HW114707   2.532   2.393   2.942  1.2057  0.6850  0.4892
 4422SOL    HW214708   2.479   2.524   2.889 -1.3704 -0.4540  0.1148
 4423SOL     OW14709   4.902   3.142   0.983  0.5607 -0.3287 -0.2772
 4423SOL    HW114710   4.933   3.184   0.902 -0.6469 -0.7846 -1.0068
 4423SOL    HW214711   4.833   3.199   1.014 -0.5191 -1.2917 -0.8184
 4424SOL     OW14712   4.637   6.444   3.232 -0.2084  0.3196  0.4372
 4424SOL    HW114713   4.695   6.428   3.306 -0.2939 -0.1233  0.4144
 4424SOL    HW214714   4.660   6.531   3.201 -1.0795  1.0662  1.8040
 4425SOL     OW14715   6.839   1.291  10.785  0.5071  0.2372 -0.0548
 4425SOL    HW114716   6.916   1.277  10.730 -0.4995 -0.7440 -1.2837
 4425SOL    HW214717   6.789   1.358  10.739 -1.8423 -2.6695 -2.1680
 4426SOL     OW14718   7.003   2.703   3.206  0.3396  0.4171 -0.2123
 4426SOL    HW114719   7.055   2.773   3.166  0.4592  0.5265  0.1301
 4426SOL    HW214720   7.031   2.702   3.297  0.2687 -0.0150 -0.1926
 4427SOL     OW14721   7.657   7.683   0.268 -0.5158 -0.7254  0.1208
 4427SOL    HW114722   7.628   7.596   0.239 -0.1896 -1.3342  1.5259
 4427SOL    HW214723   7.724   7.665   0.334  1.4141  0.6203 -1.3304
 4428SOL     OW14724   7.046   6.823   6.117  0.0699  0.0493 -0.2568
 4428SOL    HW114725   7.093   6.781   6.189 -2.1380 -1.0071  0.6463
 4428SOL    HW214726   7.067   6.771   6.040  0.4842 -0.3076  0.0937
 4429SOL     OW14727   4.880   2.248   0.323  0.4650  0.1077  0.2958
 4429SOL    HW114728   4.947   2.202   0.274 -0.6174  2.1890 -3.4964
 4429SOL    HW214729   4.814   2.181   0.342  0.5257 -0.6750 -1.9499
 4430SOL     OW14730   1.928   7.889   3.700  0.0370  0.8395 -0.6655
 4430SOL    HW114731   1.926   7.834   3.778 -0.3767 -0.4638 -1.5564
 4430SOL    HW214732   1.849   7.943   3.706  0.3945  1.2742  0.1719
 4431SOL     OW14733   2.436   0.297   4.504 -0.3106 -0.2563 -0.1427
 4431SOL    HW114734   2.402   0.264   4.587  1.0520 -0.6981  0.2590
 4431SOL    HW214735   2.378   0.370   4.482 -0.1079  0.5071  1.6862
 4432SOL     OW14736   6.753   1.945  11.152  0.7248 -0.6313  0.2791
 4432SOL    HW114737   6.684   1.899  11.104 -2.5206  1.3725  2.6190
 4432SOL    HW214738   6.791   2.004  11.087  0.9601 -2.4078 -1.2945
 4433SOL     OW14739   2.387   2.332  10.483 -0.1124 -0.2128  0.4120
 4433SOL    HW114740   2.426   2.332  10.570  2.5734 -0.3054 -0.6706
 4433SOL    HW214741   2.430   2.259  10.438  0.3058  1.1980 -1.6444
 4434SOL     OW14742   3.486   6.783   2.278  0.3309 -0.5405  0.1764
 4434SOL    HW114743   3.502   6.754   2.188 -0.4935  0.6654 -0.3738
 4434SOL    HW214744   3.455   6.705   2.323  0.2109 -1.0310 -0.7298
 4435SOL     OW14745   1.482   0.548   2.929 -0.0600 -0.1204 -0.6985
 4435SOL    HW114746   1.504   0.637   2.956 -0.4835 -0.0641 -0.5417
 4435SOL    HW214747   1.394   0.555   2.892 -0.2936 -0.5637 -0.2344
 4436SOL     OW14748   7.119   2.221   5.276  0.2770 -0.2041 -0.0419
 4436SOL    HW114749   7.054   2.159   5.309 -0.8912  0.7342 -0.4837
 4436SOL    HW214750   7.082   2.307   5.296  1.7739  0.3581  0.3938
 4437SOL     OW14751   2.282   7.296   2.413 -0.3247  0.2288  0.4724
 4437SOL    HW114752   2.296   7.204   2.389 -0.5748  0.2786  0.1256
 4437SOL    HW214753   2.363   7.322   2.457 -0.7615 -0.5452  1.7847
 4438SOL     OW14754   5.742   7.324   1.475 -0.1960  0.3217  0.5869
 4438SOL    HW114755   5.742   7.379   1.553 -0.8706 -0.6839  1.3194
 4438SOL    HW214756   5.655   7.285   1.473  0.4181 -1.0842  0.3619
 4439SOL     OW14757   6.540   4.760   6.489 -0.2852  0.0999 -0.4636
 4439SOL    HW114758   6.614   4.700   6.477  0.1927  0.7347 -0.7447
 4439SOL    HW214759   6.498   4.732   6.570 -0.6806 -1.2561 -1.1094
 4440SOL     OW14760   0.054   2.873   4.778  0.4629 -0.6222  0.5334
 4440SOL    HW114761   0.037   2.943   4.841  0.5681  0.1332 -0.2647
 4440SOL    HW214762  -0.010   2.805   4.800 -0.4125  0.2031  0.5823
 4441SOL     OW14763   3.475   1.031   4.028 -0.0845  0.0338  0.6023
 4441SOL    HW114764   3.545   0.966   4.028  0.2275  0.3655  0.4387
 4441SOL    HW214765   3.437   1.027   4.116  1.3762  1.1806  1.3095
 4442SOL     OW14766   0.895   6.160   9.017  0.0362 -0.2915 -0.5936
 4442SOL    HW114767   0.963   6.171   9.084 -1.0245 -2.6997  1.0200
 4442SOL    HW214768   0.865   6.249   8.999  0.3085  0.5091  2.2886
 4443SOL     OW14769   0.152   0.179   4.201 -0.1161  0.1348 -0.8557
 4443SOL    HW114770   0.176   0.258   4.250  0.1981 -0.0738 -0.6710
 4443SOL    HW214771   0.127   0.116   4.268 -1.1195  0.3197 -1.0392
 4444SOL     OW14772   7.838   0.171   2.987 -0.7131 -0.1535 -0.1341
 4444SOL    HW114773   7.775   0.219   2.934 -1.0924 -0.0571  0.3946
 4444SOL    HW214774   7.793   0.090   3.010 -0.6519 -0.0760  0.2638
 4445SOL     OW14775   4.055   0.348   8.337 -0.1651 -0.1046  0.4097
 4445SOL    HW114776   4.089   0.259   8.348  1.0413  0.2158 -0.5364
 4445SOL    HW214777   4.133   0.403   8.329 -0.8869  0.6798 -1.7027
 4446SOL     OW14778   3.723   7.549   5.611  0.6048 -0.1263 -0.3253
 4446SOL    HW114779   3.794   7.488   5.631  1.6126  0.8740 -0.7645
 4446SOL    HW214780   3.659   7.534   5.680  1.5333 -0.6031  0.4603
 4447SOL     OW14781   0.221   3.776   1.337  0.0220  0.3784 -0.1411
 4447SOL    HW114782   0.135   3.816   1.348 -0.2489 -0.3183  0.3244
 4447SOL    HW214783   0.203   3.685   1.315  0.6406  0.1662  0.1875
 4448SOL     OW14784   2.984   5.583  10.143  0.6412 -0.6846 -0.3478
 4448SOL    HW114785   2.950   5.626  10.064 -1.2456  0.5807  1.0604
 4448SOL    HW214786   3.048   5.645  10.178  0.4716 -0.6019 -0.1787
 4449SOL     OW14787   7.873   0.673  11.452 -0.0982 -0.3158 -0.1914
 4449SOL    HW114788   7.842   0.735  11.518 -0.7027  1.1439 -1.7518
 4449SOL    HW214789   7.967   0.666  11.466  0.6605  3.6967 -1.9950
 4450SOL     OW14790   0.325   1.404  11.211  0.7398 -0.2287 -0.3664
 4450SOL    HW114791   0.386   1.386  11.283 -0.4889  0.4474  0.8961
 4450SOL    HW214792   0.242   1.421  11.254  0.1992  1.2853 -1.8952
 4451SOL     OW14793   2.502   1.594   3.311  0.2061  0.0779  0.0424
 4451SOL    HW114794   2.516   1.501   3.293 -2.3114 -0.5301  0.7967
 4451SOL    HW214795   2.517   1.604   3.405 -0.0191  0.3264  0.0540
 4452SOL     OW14796   1.303   5.588   9.915  0.3201  0.1886  0.3600
 4452SOL    HW114797   1.263   5.571   9.830 -0.2913  0.6121  0.5526
 4452SOL    HW214798   1.290   5.507   9.964  0.3283  0.0765  0.1793
 4453SOL     OW14799   2.400   0.054   7.509  0.5395 -0.3270 -0.0412
 4453SOL    HW114800   2.476   0.043   7.567  0.4554  0.1924  0.1716
 4453SOL    HW214801   2.324   0.033   7.563  0.5375 -1.1280 -0.3324
 4454SOL     OW14802   3.155   6.277   0.738  0.8283  0.2144 -0.2620
 4454SOL    HW114803   3.170   6.351   0.797  0.6641  1.4089 -1.6400
 4454SOL    HW214804   3.223   6.286   0.671 -0.8102  0.7866 -1.9626
 4455SOL     OW14805   6.138   3.631   5.705  0.5267 -0.5702 -0.1101
 4455SOL    HW114806   6.172   3.719   5.724 -1.8546  0.8733 -1.9433
 4455SOL    HW214807   6.055   3.628   5.753 -0.9733 -0.4882 -2.5725
 4456SOL     OW14808   7.559   2.296   8.719 -0.2634  0.2701 -0.1875
 4456SOL    HW114809   7.541   2.241   8.642 -0.2326 -2.2234  1.4714
 4456SOL    HW214810   7.567   2.385   8.683 -4.4890  0.0010 -2.5639
 4457SOL     OW14811   2.889   7.463   4.004  0.5190 -0.3351 -0.1305
 4457SOL    HW114812   2.821   7.403   4.035 -0.1535  0.4331 -0.0820
 4457SOL    HW214813   2.960   7.454   4.068  0.1742 -0.6280  0.2123
 4458SOL     OW14814   5.016   3.280   6.992 -0.0597 -0.3257 -0.3666
 4458SOL    HW114815   4.930   3.302   6.957 -0.0283  0.0337 -0.2237
 4458SOL    HW214816   5.000   3.258   7.084  0.1431  0.8200 -0.0419
 4459SOL     OW14817   6.176   6.718  11.448 -0.2607 -0.1789 -0.3470
 4459SOL    HW114818   6.144   6.799  11.487 -0.3439  0.3457 -1.4608
 4459SOL    HW214819   6.262   6.740  11.413 -0.0928 -0.6943 -0.2718
 4460SOL     OW14820   1.740   5.332   7.903  0.0255  0.0664 -0.0276
 4460SOL    HW114821   1.832   5.344   7.882  0.3454 -1.8412  0.1272
 4460SOL    HW214822   1.717   5.247   7.867 -1.4394  0.1005  0.7231
 4461SOL     OW14823   2.489   7.865   9.879 -0.7008 -0.6255 -0.4904
 4461SOL    HW114824   2.511   7.880   9.971  1.6863  0.1323 -1.1213
 4461SOL    HW214825   2.544   7.790   9.853 -0.2448  0.0879 -1.6474
 4462SOL     OW14826   0.172   2.497   9.938  0.1188 -0.1355  0.1745
 4462SOL    HW114827   0.156   2.408   9.969 -0.2801  0.1183  0.6959
 4462SOL    HW214828   0.094   2.546   9.963  0.0219  0.1975 -0.7591
 4463SOL     OW14829   5.304   5.607   0.679 -0.3456 -0.3833 -0.0451
 4463SOL    HW114830   5.380   5.607   0.737 -0.4223  1.2321  0.1013
 4463SOL    HW214831   5.234   5.567   0.732 -0.0945 -0.0850  0.5257
 4464SOL     OW14832   5.449   4.264   7.853  0.2117  0.4461 -0.5006
 4464SOL    HW114833   5.528   4.235   7.807  0.7405  0.7283  0.2250
 4464SOL    HW214834   5.480   4.293   7.939 -0.6630  0.6927 -0.2608
 4465SOL     OW14835   3.988   6.304   5.774 -0.1427 -0.1847  0.2069
 4465SOL    HW114836   3.923   6.358   5.818 -1.1599 -0.1735 -1.2727
 4465SOL    HW214837   4.029   6.363   5.711 -1.1798 -1.0800 -1.3374
 4466SOL     OW14838   2.185   5.514   5.809 -0.4733 -0.0652  0.0646
 4466SOL    HW114839   2.090   5.507   5.823 -0.1218 -0.5495  2.6454
 4466SOL    HW214840   2.193   5.570   5.731 -2.8751  2.7734  1.6186
 4467SOL     OW14841   5.783   5.231   0.696  0.1041  0.4114  0.5840
 4467SOL    HW114842   5.762   5.285   0.773  2.8584  1.2841  0.8330
 4467SOL    HW214843   5.728   5.267   0.627 -1.3278  0.6144  1.7662
 4468SOL     OW14844   7.642   6.019   8.688 -0.0768 -0.3925 -0.0241
 4468SOL    HW114845   7.628   5.930   8.719 -0.1116 -0.6122 -0.6536
 4468SOL    HW214846   7.557   6.047   8.655  0.0057 -0.2374 -0.1095
 4469SOL     OW14847   7.542   1.979  11.772  0.4295  0.3090 -0.0313
 4469SOL    HW114848   7.461   1.985  11.823  0.0412 -2.2101 -0.2340
 4469SOL    HW214849   7.514   1.953  11.684  1.4753 -1.7229  0.1791
 4470SOL     OW14850   2.489   0.037   8.582 -0.3135 -0.1008 -0.0280
 4470SOL    HW114851   2.468   0.053   8.674 -3.6621 -0.4764 -0.6080
 4470SOL    HW214852   2.501  -0.058   8.576  2.1730  0.1068  0.3087
 4471SOL     OW14853   1.959   0.156  12.045  0.6427  0.6688 -0.2263
 4471SOL    HW114854   1.947   0.187  12.135 -0.6681  0.1819 -0.2091
 4471SOL    HW214855   1.872   0.163  12.006  0.8124 -0.7469 -0.9294
 4472SOL     OW14856   0.910   0.160  10.820 -0.2773 -0.1823 -0.4931
 4472SOL    HW114857   0.866   0.239  10.850  0.5874  0.0258  0.2473
 4472SOL    HW214858   0.878   0.091  10.879 -0.4785 -0.2578 -0.6861
 4473SOL     OW14859   3.706   4.104   1.553 -0.9884 -0.0671 -0.1776
 4473SOL    HW114860   3.727   4.155   1.631  0.9478  0.1343 -0.7677
 4473SOL    HW214861   3.745   4.018   1.569  0.4625  0.3263 -1.3365
 4474SOL     OW14862   4.178   6.057   3.677  0.0939 -0.2964 -0.1535
 4474SOL    HW114863   4.128   6.131   3.642  1.4540 -0.6622 -3.2019
 4474SOL    HW214864   4.128   5.980   3.653  0.8003 -0.5335 -0.9308
 4475SOL     OW14865   7.030   4.809   7.447 -0.1678  0.5530 -0.3217
 4475SOL    HW114866   7.010   4.734   7.503  0.2717 -1.0155 -2.1802
 4475SOL    HW214867   6.977   4.795   7.369  0.6855  1.6552 -1.1185
 4476SOL     OW14868   3.366   1.764  11.334  0.4712 -0.0725  0.0058
 4476SOL    HW114869   3.432   1.829  11.359  0.2846  0.2832 -0.4180
 4476SOL    HW214870   3.416   1.686  11.312  0.7761  0.2897 -0.6097
 4477SOL     OW14871   6.968   0.121   5.547 -0.0673 -0.4389  0.0681
 4477SOL    HW114872   7.005   0.035   5.565 -1.6595 -1.0328  0.6390
 4477SOL    HW214873   6.874   0.109   5.553 -0.3307  1.3547  0.1737
 4478SOL     OW14874   5.887   3.506   2.095 -0.3241 -0.2790  0.2216
 4478SOL    HW114875   5.852   3.541   2.013  0.2337  0.7448  0.4066
 4478SOL    HW214876   5.845   3.557   2.164 -1.7236 -1.9587  0.6652
 4479SOL     OW14877   0.113   5.990   7.362  0.0698  0.2968  0.0395
 4479SOL    HW114878   0.073   5.945   7.287 -1.2575  1.0010  0.2964
 4479SOL    HW214879   0.200   5.952   7.369 -0.3003 -0.7999 -0.9863
 4480SOL     OW14880   7.080   7.910   2.566 -0.4316  0.1198 -0.3167
 4480SOL    HW114881   7.048   7.997   2.590  0.7803  0.6809 -0.6375
 4480SOL    HW214882   7.012   7.875   2.508 -2.1898 -0.2436  1.8390
 4481SOL     OW14883   3.903   2.563   8.520 -0.4443  0.0277  0.2832
 4481SOL    HW114884   3.983   2.616   8.516 -0.8250  0.6547  0.7688
 4481SOL    HW214885   3.929   2.483   8.565 -0.2732  0.5917  1.2241
 4482SOL     OW14886   5.916   2.883  12.147  0.0047 -0.1458  0.0155
 4482SOL    HW114887   5.955   2.797  12.158 -0.7760 -0.5204 -0.0313
 4482SOL    HW214888   5.910   2.895  12.052 -2.2308 -1.1831 -0.0468
 4483SOL     OW14889   6.874   7.011   6.210 -0.2463 -0.2303  1.1979
 4483SOL    HW114890   6.859   7.085   6.151 -0.4172  0.5913  2.2507
 4483SOL    HW214891   6.920   6.947   6.156 -0.4913  0.4544  0.1420
 4484SOL     OW14892   0.158   5.988   6.466 -0.3526 -0.3206 -0.0013
 4484SOL    HW114893   0.172   6.008   6.373  0.2873 -0.3192  0.0911
 4484SOL    HW214894   0.245   5.995   6.505 -0.7151  0.2927  0.7178
 4485SOL     OW14895   4.958   1.121  11.056 -0.1782  0.0544  0.0094
 4485SOL    HW114896   4.979   1.214  11.063 -0.4201  0.0706  0.5305
 4485SOL    HW214897   4.936   1.095  11.145 -0.4020 -0.4330 -0.1906
 4486SOL     OW14898   6.110   6.672   1.814  0.4440  0.0574 -0.2830
 4486SOL    HW114899   6.077   6.584   1.795 -1.5521  1.0519 -1.7211
 4486SOL    HW214900   6.032   6.723   1.837  1.6522  1.2992  1.3369
 4487SOL     OW14901   0.040   4.648  12.161 -0.5196  0.2508  0.0701
 4487SOL    HW114902   0.015   4.702  12.086  0.1993  0.6301  0.0837
 4487SOL    HW214903  -0.025   4.669  12.228 -1.0234  0.0940 -0.3626
 4488SOL     OW14904   3.107   1.576   0.804  0.2386  0.2484 -0.4750
 4488SOL    HW114905   3.121   1.567   0.899  0.8332  1.5741 -0.4189
 4488SOL    HW214906   3.160   1.651   0.779  0.4924 -0.3949 -1.9697
 4489SOL     OW14907   2.252   3.851   9.159  0.3212  0.5299 -0.4726
 4489SOL    HW114908   2.258   3.803   9.241 -0.7286 -1.5059 -1.5024
 4489SOL    HW214909   2.158   3.868   9.148  0.3648  0.1472 -1.5589
 4490SOL     OW14910   2.752   0.619   1.350 -0.3838  0.7420 -0.1046
 4490SOL    HW114911   2.794   0.700   1.381  0.9475 -0.2059  0.6587
 4490SOL    HW214912   2.805   0.593   1.274 -0.1563  0.0351  0.2899
 4491SOL     OW14913   6.301   7.578   4.199 -0.1556 -0.5476  0.0891
 4491SOL    HW114914   6.316   7.626   4.281  2.3803  0.3258 -0.7805
 4491SOL    HW214915   6.224   7.620   4.161  0.7717  1.5507  0.3379
 4492SOL     OW14916   4.294   0.804   6.509  0.9132 -0.0069  0.1727
 4492SOL    HW114917   4.279   0.754   6.590 -1.6848  1.3149  0.6163
 4492SOL    HW214918   4.257   0.748   6.440  2.5034 -0.8227 -0.0694
 4493SOL     OW14919   1.767   4.022   5.953  0.3860  0.5780 -0.2544
 4493SOL    HW114920   1.824   4.017   5.876 -0.9816  1.3213 -1.3502
 4493SOL    HW214921   1.701   4.087   5.930  0.8064  2.0032  2.1517
 4494SOL     OW14922   0.597   4.910   1.488 -0.2821 -0.2016  0.0804
 4494SOL    HW114923   0.596   4.851   1.564  0.5886 -0.7316 -0.3030
 4494SOL    HW214924   0.549   4.987   1.518 -0.0507 -0.4436  1.1441
 4495SOL     OW14925   3.563   5.538   2.477  0.0750  0.3179 -0.4706
 4495SOL    HW114926   3.482   5.526   2.528  1.0293 -1.3795  0.7809
 4495SOL    HW214927   3.582   5.450   2.442  2.0207  0.3707  0.3239
 4496SOL     OW14928   4.777   7.593  11.639  0.1257  0.2138  0.0476
 4496SOL    HW114929   4.779   7.603  11.544 -0.8090 -1.2787 -0.1582
 4496SOL    HW214930   4.865   7.619  11.668  0.9728 -0.9150 -1.3887
 4497SOL     OW14931   4.989   2.091   5.862  0.1889  0.5901 -0.0343
 4497SOL    HW114932   4.947   2.145   5.928 -0.3971  0.5775 -0.3853
 4497SOL    HW214933   4.971   2.001   5.890 -1.0839  0.5741 -0.8176
 4498SOL     OW14934   4.532   6.984  12.260  0.1429 -0.2997 -0.3149
 4498SOL    HW114935   4.509   6.985  12.167 -0.1543  1.0345 -0.2432
 4498SOL    HW214936   4.623   7.011  12.262 -0.8084  3.4270 -0.0425
 4499SOL     OW14937   6.945   5.671  11.717  0.1296 -0.5133 -0.4430
 4499SOL    HW114938   6.962   5.742  11.656 -0.5423 -0.3070 -0.4045
 4499SOL    HW214939   6.870   5.625  11.679  0.6282 -1.2763 -0.5294
 4500SOL     OW14940   6.769   2.094   6.118 -0.2215 -0.3456  0.1810
 4500SOL    HW114941   6.727   2.043   6.187 -0.3302 -0.1626  0.2521
 4500SOL    HW214942   6.734   2.057   6.037  0.6879 -1.2391  0.1824
 4501SOL     OW14943   2.489   3.656   9.464 -0.1547 -0.0307  0.5632
 4501SOL    HW114944   2.477   3.589   9.532 -3.9640  0.5306  0.6540
 4501SOL    HW214945   2.508   3.606   9.384  0.0669 -1.0131  1.2160
 4502SOL     OW14946   1.006   6.738   6.566  0.7735  0.2958  0.5009
 4502SOL    HW114947   0.981   6.682   6.639  1.6208  0.1633  0.6949
 4502SOL    HW214948   0.956   6.703   6.492  1.6464 -1.0432  0.5017
 4503SOL     OW14949   6.901   6.605   3.148  0.0797  0.0269  0.3520
 4503SOL    HW114950   6.864   6.636   3.231  0.1713 -1.1975  0.8768
 4503SOL    HW214951   6.830   6.555   3.107  0.6839 -1.1630  0.7111
 4504SOL     OW14952   2.541   4.576  11.669 -0.4649 -0.0346 -0.7598
 4504SOL    HW114953   2.556   4.555  11.577 -2.6059 -1.4310 -0.8541
 4504SOL    HW214954   2.598   4.516  11.717 -0.5909 -0.4744 -1.1562
 4505SOL     OW14955   1.719   3.401   5.560 -0.2176  0.1186 -0.3981
 4505SOL    HW114956   1.677   3.319   5.533 -0.9223  0.1196  0.6387
 4505SOL    HW214957   1.649   3.466   5.558  0.2396  0.6152 -0.7777
 4506SOL     OW14958   1.366   4.629   4.984 -0.5208  0.3589  0.1649
 4506SOL    HW114959   1.291   4.594   5.031 -0.1090 -0.5127  0.1878
 4506SOL    HW214960   1.366   4.583   4.900 -0.4589  0.9223 -0.1557
 4507SOL     OW14961   2.808   1.553   2.632  0.1162 -0.0636 -0.0005
 4507SOL    HW114962   2.880   1.496   2.605  0.5303 -0.0187  0.9892
 4507SOL    HW214963   2.804   1.545   2.727  0.2227  1.5940  0.1769
 4508SOL     OW14964   1.576   2.215   5.076 -0.0770  0.2149  0.1277
 4508SOL    HW114965   1.522   2.271   5.019 -2.0171 -0.8432  0.8142
 4508SOL    HW214966   1.653   2.193   5.023 -0.1515  2.0174 -0.8130
 4509SOL     OW14967   5.869   3.987   6.291 -0.2618 -0.0923 -0.3910
 4509SOL    HW114968   5.851   3.946   6.376  0.8987 -0.5406 -0.3416
 4509SOL    HW214969   5.899   4.075   6.312 -1.5632  0.3793 -0.4350
 4510SOL     OW14970   0.090   5.751   0.203  0.2703 -0.4282  0.2645
 4510SOL    HW114971   0.013   5.712   0.244  0.9820  0.5474  2.7140
 4510SOL    HW214972   0.153   5.679   0.196  0.8311 -0.3069  2.8449
 4511SOL     OW14973   2.355   6.562   2.414  0.3088 -0.4646  0.1442
 4511SOL    HW114974   2.300   6.571   2.492  0.3219 -1.4271  0.2798
 4511SOL    HW214975   2.303   6.509   2.354  0.1469  0.5836 -0.6690
 4512SOL     OW14976   6.595   1.336   0.119 -0.4709 -0.3352  0.1693
 4512SOL    HW114977   6.530   1.340   0.048  1.4957  0.4488 -1.6817
 4512SOL    HW214978   6.609   1.427   0.144  0.1860 -0.4726  0.3106
 4513SOL     OW14979   1.514   7.387   8.259  0.1570 -0.0248 -0.1048
 4513SOL    HW114980   1.423   7.363   8.274 -0.1789  1.5037  0.5215
 4513SOL    HW214981   1.564   7.319   8.304 -0.6896 -0.4031  0.2910
 4514SOL     OW14982   5.313   3.620   4.637 -0.3210 -0.3475  0.3430
 4514SOL    HW114983   5.262   3.635   4.716  0.7626 -0.1382  1.0074
 4514SOL    HW214984   5.349   3.532   4.648  1.1150  0.2825  0.8180
 4515SOL     OW14985   6.301   3.259   0.679 -0.1799  0.2887 -0.7474
 4515SOL    HW114986   6.328   3.345   0.711 -0.7837  1.3297 -2.8940
 4515SOL    HW214987   6.369   3.234   0.617  1.5034 -2.1584  1.8362
 4516SOL     OW14988   3.043   7.862   5.498  0.4270  0.4289 -0.0354
 4516SOL    HW114989   3.136   7.868   5.476  0.1625 -0.1221 -1.3602
 4516SOL    HW214990   3.004   7.814   5.426 -1.2442  2.3753 -0.5107
 4517SOL     OW14991   7.262   7.000   4.663 -0.1089 -0.1286  0.2573
 4517SOL    HW114992   7.230   6.917   4.626 -0.5683 -0.1889  0.7645
 4517SOL    HW214993   7.354   6.984   4.682 -0.3529 -0.7570  0.9762
 4518SOL     OW14994   5.953   6.378   2.326 -0.2424  0.5257 -0.2343
 4518SOL    HW114995   5.953   6.430   2.245 -0.4447 -0.8425 -1.1522
 4518SOL    HW214996   5.907   6.298   2.302  1.8484 -1.0028  0.5005
 4519SOL     OW14997   3.316   0.017   3.529  0.0839 -0.1864 -0.4961
 4519SOL    HW114998   3.362  -0.009   3.449  0.3315 -0.2413 -0.3365
 4519SOL    HW214999   3.234  -0.031   3.525  0.6749 -1.2691 -0.0394
 4520SOL     OW15000   3.969   3.389   1.009 -0.2576  0.2051  0.0492
 4520SOL    HW115001   3.921   3.388   0.926 -0.8571  1.2435  0.3640
 4520SOL    HW215002   3.987   3.297   1.027  0.2392 -0.0115 -1.4260
 4521SOL     OW15003   1.052   6.102  10.330  0.1361 -0.2811  0.2314
 4521SOL    HW115004   1.112   6.080  10.402 -0.2096  0.3154  0.7109
 4521SOL    HW215005   1.106   6.096  10.251  0.1172 -2.6397  0.3331
 4522SOL     OW15006   7.464   2.972   6.695  0.2417 -0.3280 -0.0419
 4522SOL    HW115007   7.544   2.961   6.643 -0.5392 -1.0474 -1.1418
 4522SOL    HW215008   7.452   2.889   6.740 -0.8964 -0.9444 -1.4046
 4523SOL     OW15009   1.773   6.524  10.595 -0.3470 -0.0316 -0.0043
 4523SOL    HW115010   1.747   6.435  10.573 -2.1611  0.4319  0.1328
 4523SOL    HW215011   1.803   6.562  10.512  0.6997 -0.8293 -0.0083
 4524SOL     OW15012   4.891   3.735   1.860  0.4792  0.1960  0.0674
 4524SOL    HW115013   4.838   3.737   1.939  0.2273  2.1596 -0.0878
 4524SOL    HW215014   4.877   3.648   1.823 -0.8980 -0.0823  1.1796
 4525SOL     OW15015   5.716   2.968   3.434  0.1299 -0.3682 -0.4377
 4525SOL    HW115016   5.638   2.927   3.471 -1.6959  1.4100 -2.1409
 4525SOL    HW215017   5.787   2.906   3.455 -1.8734 -2.6223  0.1424
 4526SOL     OW15018   4.535   0.794   6.789  0.5955  0.1741 -0.2942
 4526SOL    HW115019   4.601   0.741   6.745  0.6857 -0.2283  0.3088
 4526SOL    HW215020   4.451   0.757   6.761  0.6613 -1.0740  1.0122
 4527SOL     OW15021   2.265   0.048  11.423  0.0496 -0.0277  0.0931
 4527SOL    HW115022   2.347  -0.001  11.417 -1.2545 -2.3543  0.1797
 4527SOL    HW215023   2.290   0.139  11.407  2.8501 -0.4397  1.5304
 4528SOL     OW15024   0.521   4.379  11.703 -0.4188 -0.3195 -0.1055
 4528SOL    HW115025   0.459   4.333  11.647  1.3144  0.0308 -2.4769
 4528SOL    HW215026   0.483   4.467  11.714 -0.0809  0.1502 -2.1846
 4529SOL     OW15027   1.905   5.838  10.899  0.4195 -0.0239 -0.0821
 4529SOL    HW115028   1.936   5.904  10.837  1.8288 -0.8221 -0.2754
 4529SOL    HW215029   1.835   5.792  10.853 -0.0001  0.7891 -0.2584
 4530SOL     OW15030   3.989   7.140   3.569  0.2255 -0.2125 -0.3100
 4530SOL    HW115031   4.065   7.102   3.614 -1.5653  0.0607  3.2439
 4530SOL    HW215032   3.919   7.076   3.582 -1.1021  1.2118 -0.2328
 4531SOL     OW15033   3.491   1.378   4.700  0.0430 -0.2081 -0.1947
 4531SOL    HW115034   3.558   1.443   4.678  0.4019 -0.1777  0.9349
 4531SOL    HW215035   3.516   1.300   4.651  1.6842 -0.6189  1.2316
 4532SOL     OW15036   3.572   6.914   5.943  0.4811 -0.2270  0.7674
 4532SOL    HW115037   3.577   6.884   6.034  1.8909 -1.6769  0.2541
 4532SOL    HW215038   3.626   6.993   5.941  2.5333 -1.5687  0.7142
 4533SOL     OW15039   7.113   6.333  12.440  0.4120 -0.2332 -0.0362
 4533SOL    HW115040   7.061   6.408  12.412  1.6003  0.6642  0.0783
 4533SOL    HW215041   7.053   6.280  12.493  0.0315  1.6050  1.4837
 4534SOL     OW15042   0.169   5.060   5.668 -0.3888  0.5286 -0.3257
 4534SOL    HW115043   0.254   5.099   5.646 -0.2280 -0.7178 -2.1133
 4534SOL    HW215044   0.106   5.111   5.618 -0.5913  0.7980  0.1978
 4535SOL     OW15045   4.394   5.280   8.376  0.0551 -0.0089  0.0819
 4535SOL    HW115046   4.332   5.210   8.395 -0.7981  0.2141 -1.6565
 4535SOL    HW215047   4.344   5.342   8.323  1.6422  0.3845 -1.0315
 4536SOL     OW15048   2.345   2.679   1.357 -0.5766  0.4901  0.2631
 4536SOL    HW115049   2.409   2.637   1.415 -0.2167  0.9944  0.2367
 4536SOL    HW215050   2.314   2.755   1.407 -2.3695 -0.6391  0.9504
 4537SOL     OW15051   5.758   6.333   0.950  0.4171  0.3836 -0.1884
 4537SOL    HW115052   5.709   6.397   0.898 -0.5670  2.1887  2.6822
 4537SOL    HW215053   5.833   6.382   0.984  0.4220 -0.3738  0.9449
 4538SOL     OW15054   4.217   4.154   3.647  0.0074  0.3742  0.6588
 4538SOL    HW115055   4.301   4.193   3.621  0.2336  0.1172  0.9962
 4538SOL    HW215056   4.198   4.090   3.578 -1.0986  2.0834 -0.6998
 4539SOL     OW15057   0.974   3.802   1.546 -0.2618  0.5937  0.3858
 4539SOL    HW115058   0.991   3.722   1.596 -2.0813 -1.4865 -2.0328
 4539SOL    HW215059   1.052   3.814   1.493 -0.7256 -0.8154 -0.6724
 4540SOL     OW15060   0.688   3.149   3.778 -0.4501 -0.0034  0.1030
 4540SOL    HW115061   0.767   3.127   3.728  0.6935  1.2420  1.2957
 4540SOL    HW215062   0.666   3.067   3.824 -0.3134 -0.5697 -0.8121
 4541SOL     OW15063   2.563   7.634   0.633  0.4727 -0.1248 -0.1207
 4541SOL    HW115064   2.494   7.653   0.697  0.3305 -0.0434 -0.2980
 4541SOL    HW215065   2.522   7.578   0.568  0.7237 -0.5239  0.0626
 4542SOL     OW15066   5.669   7.636   8.409 -0.2565 -0.1047  0.4312
 4542SOL    HW115067   5.674   7.726   8.376  0.5422 -0.3751 -0.2284
 4542SOL    HW215068   5.576   7.614   8.404 -0.4208  0.5908  0.3432
 4543SOL     OW15069   4.002   1.896   6.295 -0.6490  0.1164  0.2949
 4543SOL    HW115070   3.910   1.875   6.281 -1.3368  2.4366  0.7892
 4543SOL    HW215071   4.020   1.868   6.385 -0.5098 -1.3886 -0.1852
 4544SOL     OW15072   4.609   1.826   2.946  0.3324 -0.3774 -0.5134
 4544SOL    HW115073   4.545   1.880   2.899  1.5794  1.3667 -0.3006
 4544SOL    HW215074   4.628   1.754   2.886  0.6955  0.9257 -2.0430
 4545SOL     OW15075   7.800   2.119   5.118  0.6321  0.4195 -0.1607
 4545SOL    HW115076   7.795   2.212   5.141  0.6449  0.1334  1.1131
 4545SOL    HW215077   7.884   2.091   5.155  1.4492  0.2641 -2.0271
 4546SOL     OW15078   7.741   4.312   8.042  0.3220 -0.7071  0.8591
 4546SOL    HW115079   7.726   4.289   7.950 -0.2437  0.2810  0.6894
 4546SOL    HW215080   7.751   4.228   8.087  1.5597 -1.1879 -0.2512
 4547SOL     OW15081   0.446   6.061   1.559  0.3314  0.0450 -0.1130
 4547SOL    HW115082   0.483   5.984   1.515 -2.4495 -1.9024  0.6507
 4547SOL    HW215083   0.422   6.120   1.488  2.2586  0.1421 -0.7345
 4548SOL     OW15084   4.656   6.546   2.133  0.0278 -0.0461 -0.1416
 4548SOL    HW115085   4.632   6.635   2.109  0.5655 -0.1034 -0.9170
 4548SOL    HW215086   4.587   6.518   2.193  1.7452  2.2123  3.2189
 4549SOL     OW15087   5.996   5.810  10.801  0.0112 -0.2705 -0.8086
 4549SOL    HW115088   6.029   5.801  10.712  0.0703 -0.3661 -0.7765
 4549SOL    HW215089   6.056   5.872  10.843  0.1262 -0.4125 -0.7626
 4550SOL     OW15090   0.515   0.754   3.461 -0.2281 -0.5780 -0.5944
 4550SOL    HW115091   0.521   0.849   3.447  0.3752 -0.5942 -0.4809
 4550SOL    HW215092   0.439   0.727   3.411 -1.4730  0.2428  0.7583
 4551SOL     OW15093   4.866   6.482   0.504 -0.2871 -0.3019  0.3070
 4551SOL    HW115094   4.857   6.396   0.544 -1.0604  0.0075  0.8115
 4551SOL    HW215095   4.958   6.505   0.517 -0.3776 -0.4836  1.3306
 4552SOL     OW15096   5.847   3.377   2.916  0.7200 -0.3751 -0.6534
 4552SOL    HW115097   5.861   3.302   2.857  1.4751  1.1645 -2.5769
 4552SOL    HW215098   5.753   3.389   2.918  0.5580 -1.5696 -0.0117
 4553SOL     OW15099   2.849   0.612   5.082 -0.5407 -0.0590 -0.2433
 4553SOL    HW115100   2.862   0.596   4.988 -0.9889  1.9960 -0.7181
 4553SOL    HW215101   2.936   0.602   5.120 -0.2555 -0.4433 -0.9613
 4554SOL     OW15102   1.260   1.843   5.290 -0.3635 -0.1719 -0.6136
 4554SOL    HW115103   1.316   1.919   5.276  0.5540 -0.3586  1.6252
 4554SOL    HW215104   1.178   1.880   5.323 -0.8627 -0.0350 -1.9403
 4555SOL     OW15105   6.503   4.079  12.211 -0.2243  0.2646 -0.0457
 4555SOL    HW115106   6.438   4.018  12.244  0.6364 -0.3455  0.5763
 4555SOL    HW215107   6.475   4.164  12.245  0.4269 -0.2894  2.0700
 4556SOL     OW15108   6.760   1.118  10.004  0.3022 -0.3513  0.9465
 4556SOL    HW115109   6.710   1.170   9.941  0.4961 -0.1076  0.9915
 4556SOL    HW215110   6.696   1.056  10.040 -0.1559  0.4250  1.5243
 4557SOL     OW15111   0.419   7.849   0.247  0.1773 -0.3415 -0.2513
 4557SOL    HW115112   0.442   7.866   0.156 -1.0892 -0.5809 -0.6403
 4557SOL    HW215113   0.327   7.875   0.253  0.4121  0.2482  1.1191
 4558SOL     OW15114   6.738   0.279  11.840 -0.1003 -0.0521  0.2398
 4558SOL    HW115115   6.803   0.271  11.770  1.4743  1.8470  1.3687
 4558SOL    HW215116   6.697   0.364  11.825 -1.1459 -0.4931  0.5196
 4559SOL     OW15117   3.024   4.006  11.386 -0.6166  0.2431 -0.0673
 4559SOL    HW115118   3.027   4.096  11.419 -1.4250  0.8251 -1.5174
 4559SOL    HW215119   2.931   3.986  11.377 -0.4286 -0.0223 -1.6189
 4560SOL     OW15120   1.232   4.841   9.124  0.0618  0.3690  0.0463
 4560SOL    HW115121   1.151   4.808   9.162  0.2720  0.8307  0.9154
 4560SOL    HW215122   1.240   4.794   9.041 -0.3822 -0.7028  0.5886
 4561SOL     OW15123   2.267   3.879   7.871 -0.1883 -0.2178  0.1667
 4561SOL    HW115124   2.342   3.932   7.900 -1.8257  0.8410  2.8663
 4561SOL    HW215125   2.196   3.943   7.859 -0.8832 -1.2626 -1.7350
 4562SOL     OW15126   6.272   2.317   7.700 -0.3958 -0.0358  0.3160
 4562SOL    HW115127   6.357   2.333   7.660 -0.8738 -0.6905 -1.0153
 4562SOL    HW215128   6.288   2.247   7.764  0.2906  0.7264  0.9990
 4563SOL     OW15129   2.091   5.123   6.532 -0.3296  0.2622  0.3913
 4563SOL    HW115130   2.142   5.079   6.600  0.5317  0.4858 -0.1012
 4563SOL    HW215131   2.010   5.148   6.576 -0.6577 -1.4011  0.8028
 4564SOL     OW15132   7.097   3.336   9.063 -0.2395  0.5011 -0.5160
 4564SOL    HW115133   7.025   3.386   9.024 -0.3658 -0.9945 -2.3158
 4564SOL    HW215134   7.173   3.358   9.010 -0.1686 -0.7304 -0.9400
 4565SOL     OW15135   1.505   2.493   6.608 -0.2275  0.0441  0.3904
 4565SOL    HW115136   1.577   2.436   6.582  1.1891  0.3238  3.3179
 4565SOL    HW215137   1.521   2.575   6.561 -0.5673 -0.8793 -1.4683
 4566SOL     OW15138   0.041   1.821   4.865 -0.2162  0.3632 -0.6341
 4566SOL    HW115139   0.068   1.900   4.819  0.2929  0.5458 -0.0501
 4566SOL    HW215140   0.004   1.764   4.797  1.1369  0.3446 -1.3936
 4567SOL     OW15141   1.268   6.492   7.116  0.1519 -0.3479  0.4705
 4567SOL    HW115142   1.178   6.489   7.148  0.4307 -1.2965  1.2128
 4567SOL    HW215143   1.315   6.544   7.182 -0.3594  2.7202 -1.3617
 4568SOL     OW15144   2.929   7.011   5.739 -0.1820  0.0855  0.4534
 4568SOL    HW115145   2.872   6.994   5.814  0.8024 -0.1985  1.1575
 4568SOL    HW215146   2.933   6.927   5.692 -0.3313  0.0992  0.4181
 4569SOL     OW15147   1.019   0.807   5.032 -0.4067 -0.3154  0.5549
 4569SOL    HW115148   1.060   0.885   4.994  0.2641 -0.1624  1.5481
 4569SOL    HW215149   0.928   0.810   5.001 -0.0252  0.0832 -0.5690
 4570SOL     OW15150   0.863   7.727   6.767  0.3221  0.6367 -0.0450
 4570SOL    HW115151   0.785   7.673   6.762  0.3711  0.6056 -0.4560
 4570SOL    HW215152   0.835   7.807   6.813  0.2628  0.2469  0.6170
 4571SOL     OW15153   0.377   2.791   1.368 -0.2582  0.0845  0.2312
 4571SOL    HW115154   0.296   2.812   1.415  0.8668  0.4379  2.0948
 4571SOL    HW215155   0.400   2.703   1.397 -0.5001 -0.4415 -1.1038
 4572SOL     OW15156   0.483   3.295   6.611 -0.0079 -0.0314  0.0624
 4572SOL    HW115157   0.516   3.382   6.590  0.3183  0.4499  2.2788
 4572SOL    HW215158   0.556   3.252   6.656 -0.8732 -0.6394  0.9310
 4573SOL     OW15159   4.090   7.628   2.114 -0.0926  0.5583 -0.4594
 4573SOL    HW115160   4.029   7.556   2.124 -0.6794  1.0639 -0.3134
 4573SOL    HW215161   4.150   7.600   2.045 -0.6658  0.1671 -0.8092
 4574SOL     OW15162   6.724   4.411   0.344  0.1012 -0.6060 -0.0062
 4574SOL    HW115163   6.797   4.468   0.368  0.3301 -0.7410 -0.3817
 4574SOL    HW215164   6.749   4.373   0.260 -0.9197  0.2341 -0.7197
 4575SOL     OW15165   6.398   1.746   9.763 -0.0782 -0.9422 -0.6904
 4575SOL    HW115166   6.473   1.805   9.767 -0.6322 -0.0986 -1.8844
 4575SOL    HW215167   6.346   1.779   9.689 -1.8802 -1.1823  0.4062
 4576SOL     OW15168   6.980   7.852   8.420 -0.0835  0.3028 -0.0438
 4576SOL    HW115169   6.959   7.796   8.495 -0.2218  1.1588  0.5719
 4576SOL    HW215170   7.073   7.870   8.429  0.0026  0.0153 -0.3522
 4577SOL     OW15171   4.829   0.830   8.694  0.2068  0.1857 -0.9384
 4577SOL    HW115172   4.777   0.854   8.771  0.0082  0.1266 -1.0515
 4577SOL    HW215173   4.876   0.751   8.720 -0.9017 -0.6324 -1.3163
 4578SOL     OW15174   5.133   3.838  10.042 -0.1843  0.0652  0.2251
 4578SOL    HW115175   5.113   3.772   9.976  0.9089  0.4601 -0.5305
 4578SOL    HW215176   5.116   3.794  10.126 -1.5292 -0.4489 -0.3054
 4579SOL     OW15177   0.391   3.067   2.871  0.3410 -0.2706 -0.2886
 4579SOL    HW115178   0.319   3.100   2.925  0.7482  2.0158 -1.0230
 4579SOL    HW215179   0.360   2.982   2.839 -2.0151  0.6270 -0.5599
 4580SOL     OW15180   7.141   4.160   5.527  0.6806  0.3372 -0.0232
 4580SOL    HW115181   7.126   4.251   5.500 -1.7923 -0.6757 -2.5117
 4580SOL    HW215182   7.143   4.110   5.446 -1.4138 -2.2460  1.3535
 4581SOL     OW15183   7.608   6.268   2.602 -0.3306 -0.3719  0.8141
 4581SOL    HW115184   7.580   6.350   2.563 -1.1718 -0.9639  0.1276
 4581SOL    HW215185   7.686   6.291   2.654 -1.2771  1.0729  1.6719
 4582SOL     OW15186   4.327   1.079   8.488 -0.2455  0.0978 -0.3964
 4582SOL    HW115187   4.337   1.017   8.561 -0.1956  0.2826 -0.2468
 4582SOL    HW215188   4.339   1.025   8.410 -1.1983 -0.2809 -0.3032
 4583SOL     OW15189   5.830   1.630   0.241  0.6008  0.1153 -0.0521
 4583SOL    HW115190   5.867   1.713   0.271 -0.3060  0.7205 -0.5724
 4583SOL    HW215191   5.737   1.637   0.259  0.3666 -0.3756 -1.0107
 4584SOL     OW15192   6.227   0.138  12.001  0.0159  0.1471  0.2290
 4584SOL    HW115193   6.241   0.099  11.914  0.3115  1.0218 -0.1248
 4584SOL    HW215194   6.296   0.205  12.008 -2.3161  2.8077 -0.4863
 4585SOL     OW15195   6.506   7.516   4.061  0.0425  0.0054  0.5014
 4585SOL    HW115196   6.574   7.584   4.065 -1.6744  2.1819 -2.4562
 4585SOL    HW215197   6.435   7.550   4.115 -0.2695 -0.1397  0.1886
 4586SOL     OW15198   2.892   6.652   0.818  0.2846 -0.0136  0.2292
 4586SOL    HW115199   2.973   6.691   0.787  0.6500 -0.6847  0.3205
 4586SOL    HW215200   2.863   6.709   0.889  1.3745 -0.4876  1.0869
 4587SOL     OW15201   6.021   0.514   0.799  0.0841  0.2203  0.3155
 4587SOL    HW115202   5.986   0.425   0.792 -0.1861  0.3280  0.2965
 4587SOL    HW215203   6.115   0.501   0.813  0.2848 -0.0476 -1.1107
 4588SOL     OW15204   3.469   0.095   3.744  0.2571  0.2188 -0.1738
 4588SOL    HW115205   3.438   0.055   3.825  2.7030 -1.6146 -0.0503
 4588SOL    HW215206   3.417   0.052   3.675  2.0342 -2.5170  0.0524
 4589SOL     OW15207   4.789   3.343   6.896 -0.2151 -0.3592 -0.3152
 4589SOL    HW115208   4.712   3.350   6.839 -0.0814 -0.9716 -0.5757
 4589SOL    HW215209   4.758   3.376   6.981 -0.8306 -0.7713 -0.3658
 4590SOL     OW15210   5.367   6.056  10.480 -0.1260  0.3230  0.1122
 4590SOL    HW115211   5.277   6.028  10.496  0.0695  0.6643  2.1501
 4590SOL    HW215212   5.369   6.078  10.387 -1.5004 -1.9093 -0.5282
 4591SOL     OW15213   5.057   0.885   9.061  0.1193 -0.1759  0.1929
 4591SOL    HW115214   5.067   0.916   8.971  1.9991  0.7787  0.6571
 4591SOL    HW215215   5.068   0.964   9.114  1.3875 -1.0500  1.3110
 4592SOL     OW15216   1.022   4.340   8.014 -0.2167  0.3438 -0.1771
 4592SOL    HW115217   0.941   4.301   7.980 -0.8368  1.6366 -0.2239
 4592SOL    HW215218   1.091   4.280   7.984 -1.0816 -0.4271 -0.6926
 4593SOL     OW15219   1.130   4.313   6.300 -0.5867 -0.4987  0.1399
 4593SOL    HW115220   1.147   4.238   6.357 -0.8552 -1.9518 -1.6084
 4593SOL    HW215221   1.035   4.312   6.288 -0.6899  0.6322  0.7223
 4594SOL     OW15222   5.568   6.385   6.993 -0.5191  0.0150 -0.6786
 4594SOL    HW115223   5.614   6.304   6.970  1.6968  0.7122  0.9354
 4594SOL    HW215224   5.531   6.417   6.911  0.8979 -1.2242 -1.8547
 4595SOL     OW15225   7.222   4.059   4.299  0.5504  0.1370  0.6065
 4595SOL    HW115226   7.135   4.019   4.292  1.5557 -2.1906  0.7114
 4595SOL    HW215227   7.227   4.119   4.224 -0.0210 -2.0018 -1.2291
 4596SOL     OW15228   3.209   4.446   1.088  0.2769 -0.0703 -0.7327
 4596SOL    HW115229   3.304   4.447   1.095  0.2560 -0.6565 -0.3699
 4596SOL    HW215230   3.178   4.494   1.165  0.2945  1.1493 -1.4413
 4597SOL     OW15231   3.160   1.418   2.305 -0.4973 -0.1873 -0.2933
 4597SOL    HW115232   3.252   1.436   2.285 -0.8978  0.9235 -1.2153
 4597SOL    HW215233   3.155   1.322   2.309  0.8070 -0.2618  0.3644
 4598SOL     OW15234   1.428   1.532  11.920 -0.5201  0.1376 -0.3891
 4598SOL    HW115235   1.377   1.573  11.850 -1.0975  2.6320  1.3825
 4598SOL    HW215236   1.363   1.491  11.977 -0.0990 -1.2632 -0.8644
 4599SOL     OW15237   3.980   7.565   6.996  0.4927 -0.4852 -0.3193
 4599SOL    HW115238   4.061   7.602   7.031 -0.1843 -0.6842  1.5613
 4599SOL    HW215239   3.987   7.471   7.015  0.0261 -0.5750 -0.5766
 4600SOL     OW15240   7.864   3.281   1.268 -0.2515 -0.2143  0.1118
 4600SOL    HW115241   7.849   3.370   1.300  0.3939 -0.1533  0.2635
 4600SOL    HW215242   7.950   3.257   1.303 -0.2215 -0.7297 -0.2950
 4601SOL     OW15243   6.595   5.273   6.762  0.0400  0.4287  0.6951
 4601SOL    HW115244   6.519   5.259   6.706  0.0432 -0.0333  0.7988
 4601SOL    HW215245   6.667   5.228   6.716  0.0266 -0.0157  1.1015
 4602SOL     OW15246   0.410   1.768   2.451 -0.0909 -0.0643  0.0829
 4602SOL    HW115247   0.389   1.675   2.457  0.7186 -0.4681 -2.2208
 4602SOL    HW215248   0.342   1.804   2.395  1.7771 -0.1702 -2.4151
 4603SOL     OW15249   3.412   0.247   6.654 -0.3249  0.3933  0.3865
 4603SOL    HW115250   3.369   0.162   6.642  0.3738  0.0565  0.2020
 4603SOL    HW215251   3.379   0.302   6.583 -0.2005  0.0326  0.0446
 4604SOL     OW15252   4.678   6.452   0.778  0.1515  0.2092  0.1866
 4604SOL    HW115253   4.706   6.361   0.764 -0.4509  0.1649 -0.8421
 4604SOL    HW215254   4.752   6.505   0.749 -0.7587  0.0997 -2.7218
 4605SOL     OW15255   6.518   6.324   4.140  0.0585 -0.1020  0.2478
 4605SOL    HW115256   6.423   6.323   4.155  0.1184  0.5558  0.7496
 4605SOL    HW215257   6.554   6.354   4.223  0.5347  2.1864 -0.7127
 4606SOL     OW15258   6.290   6.323  12.298 -0.5856 -0.5964  0.0489
 4606SOL    HW115259   6.378   6.358  12.290 -0.9322  0.1319 -0.7618
 4606SOL    HW215260   6.263   6.343  12.387 -0.5707  0.7422 -0.2270
 4607SOL     OW15261   3.139   5.433   7.471 -1.0978 -0.0758  0.1545
 4607SOL    HW115262   3.050   5.405   7.490 -0.6566 -1.0195  0.9891
 4607SOL    HW215263   3.135   5.470   7.383 -2.4732  0.7072  0.5199
 4608SOL     OW15264   4.360   2.947   1.221  0.2240 -0.3310  0.3871
 4608SOL    HW115265   4.455   2.957   1.231  0.0930  0.6650  0.7449
 4608SOL    HW215266   4.326   2.951   1.310 -0.1031 -1.3527  0.3134
 4609SOL     OW15267   3.538   2.116  10.408  0.1556  0.0114  0.0947
 4609SOL    HW115268   3.497   2.038  10.371  1.4401 -0.2337 -0.9088
 4609SOL    HW215269   3.493   2.131  10.491 -0.6646 -1.3088 -0.0951
 4610SOL     OW15270   0.693   6.251  11.231  0.1129  0.5168 -0.0701
 4610SOL    HW115271   0.651   6.187  11.288  1.2848  0.3848  0.6708
 4610SOL    HW215272   0.660   6.335  11.263  1.7698  0.5570  1.7675
 4611SOL     OW15273   3.177   4.461  11.052  0.3840 -0.6579 -0.0202
 4611SOL    HW115274   3.143   4.454  10.963  0.9935  0.6287 -0.3732
 4611SOL    HW215275   3.252   4.401  11.054 -0.2900 -1.5235 -0.0216
 4612SOL     OW15276   2.709   6.809   7.806  0.1733 -0.0453 -0.6156
 4612SOL    HW115277   2.700   6.867   7.730 -0.6241  0.5447 -0.0911
 4612SOL    HW215278   2.794   6.767   7.794  0.6879  1.0899 -1.1150
 4613SOL     OW15279   2.003   5.979   0.466  0.0215  0.6382  0.4843
 4613SOL    HW115280   1.933   6.015   0.521  0.2044  0.9486  0.5135
 4613SOL    HW215281   2.037   6.055   0.419  0.1459  0.4383  0.2529
 4614SOL     OW15282   2.152   1.106   9.889 -0.3141  0.3888  0.7400
 4614SOL    HW115283   2.137   1.143   9.976  1.1025  1.4726  0.5585
 4614SOL    HW215284   2.236   1.143   9.861 -0.0036 -1.1318 -0.4716
 4615SOL     OW15285   7.384   4.259   3.181  0.7143  0.1629 -0.0405
 4615SOL    HW115286   7.404   4.338   3.130  1.4063  0.6164  0.8906
 4615SOL    HW215287   7.291   4.242   3.164  0.2654  1.8182  0.5892
 4616SOL     OW15288   4.939   5.685   0.746  0.1207 -0.0246 -0.1932
 4616SOL    HW115289   4.980   5.730   0.819 -0.3529 -1.0575  0.7397
 4616SOL    HW215290   4.998   5.612   0.726  0.0934  0.0695 -0.6427
 4617SOL     OW15291   5.799   1.204   1.774  0.1070  0.0886 -0.1178
 4617SOL    HW115292   5.857   1.252   1.715  0.2159 -1.9199 -1.7606
 4617SOL    HW215293   5.714   1.247   1.764  0.3405  0.3475 -1.0609
 4618SOL     OW15294   0.189   5.991   0.072 -0.1914 -0.0023  0.5801
 4618SOL    HW115295   0.107   6.030   0.102 -0.6509  0.3070 -0.9817
 4618SOL    HW215296   0.192   5.905   0.112 -2.5869 -1.0837 -1.3298
 4619SOL     OW15297   2.144   6.124   5.658 -0.1126 -0.1294 -0.6149
 4619SOL    HW115298   2.234   6.091   5.657  0.9831  2.5700 -1.2085
 4619SOL    HW215299   2.090   6.047   5.639  2.0847 -1.7686 -0.6267
 4620SOL     OW15300   1.032   5.017   1.243 -0.1946  0.2158 -0.3159
 4620SOL    HW115301   0.969   5.004   1.314  0.3657 -0.3272  0.0877
 4620SOL    HW215302   1.009   4.950   1.178 -0.8747  0.8815 -0.7823
 4621SOL     OW15303   2.204   0.772   9.269  0.3186 -0.2106  0.4944
 4621SOL    HW115304   2.258   0.826   9.212  1.8857 -1.9876  0.2390
 4621SOL    HW215305   2.189   0.828   9.346  2.7435  0.2818  0.6998
 4622SOL     OW15306   0.414   1.555  10.489  0.3545  0.0205 -0.5496
 4622SOL    HW115307   0.331   1.596  10.511  0.1218 -0.1251 -1.1274
 4622SOL    HW215308   0.478   1.593  10.550 -0.2671 -0.4147  0.3958
 4623SOL     OW15309   0.893   3.431   8.812  0.6456  0.0208  0.4971
 4623SOL    HW115310   0.848   3.387   8.740  0.9547  1.0773 -0.3680
 4623SOL    HW215311   0.906   3.362   8.878 -0.1822 -0.8222 -0.1916
 4624SOL     OW15312   2.330   4.778   6.930 -0.0646 -0.0675  0.0708
 4624SOL    HW115313   2.315   4.784   7.025  0.6701  1.0340  0.1417
 4624SOL    HW215314   2.423   4.757   6.921 -0.0999 -0.0322 -0.4055
 4625SOL     OW15315   4.591   5.175   1.238  0.3417  0.0012  0.2650
 4625SOL    HW115316   4.510   5.213   1.205  0.9226 -0.1821 -1.4288
 4625SOL    HW215317   4.589   5.084   1.208  0.9055 -0.1670  0.7168
 4626SOL     OW15318   1.882   0.463  10.323  0.0034  0.1129 -0.2014
 4626SOL    HW115319   1.836   0.501  10.248  0.1802  1.4428  0.3436
 4626SOL    HW215320   1.975   0.475  10.302  0.0536  0.4500  0.2127
 4627SOL     OW15321   5.645   6.999   8.804 -0.3877  0.2028 -0.3410
 4627SOL    HW115322   5.679   6.977   8.890 -1.2772  0.3182  0.0535
 4627SOL    HW215323   5.554   7.024   8.820 -0.7728 -0.4466 -1.3982
 4628SOL     OW15324   3.186   7.055  10.475  0.2110 -0.1057 -0.2389
 4628SOL    HW115325   3.149   7.055  10.563  0.2821 -0.5120 -0.2053
 4628SOL    HW215326   3.276   7.085  10.486  1.4784 -3.5730  0.4081
 4629SOL     OW15327   7.436   1.836   7.096  0.1004 -0.0552  0.1335
 4629SOL    HW115328   7.407   1.925   7.116  2.3353  1.2193 -1.7763
 4629SOL    HW215329   7.356   1.790   7.070 -1.0884  1.4272  0.9697
 4630SOL     OW15330   2.276   5.821   0.557  0.3954 -0.2212  0.1311
 4630SOL    HW115331   2.344   5.755   0.546 -0.1910 -0.5031 -2.3894
 4630SOL    HW215332   2.289   5.881   0.483 -0.6144  1.0774  0.9672
 4631SOL     OW15333   1.008   1.991   5.911 -0.1154 -0.1579 -0.1021
 4631SOL    HW115334   0.960   1.910   5.925 -0.2036 -0.1395 -0.2985
 4631SOL    HW215335   1.092   1.963   5.873 -1.0368 -0.0156 -2.3814
 4632SOL     OW15336   4.701   4.452  11.800  0.1639  0.6905 -0.6344
 4632SOL    HW115337   4.642   4.384  11.766  1.4469 -1.3855  1.0473
 4632SOL    HW215338   4.653   4.489  11.874  0.5492 -0.3976  0.1940
 4633SOL     OW15339   5.897   0.958   3.114  0.3047 -0.1802 -0.1142
 4633SOL    HW115340   5.955   1.027   3.080 -0.1765  0.5080  0.4208
 4633SOL    HW215341   5.957   0.888   3.140  0.9352  0.5790  0.5741
 4634SOL     OW15342   6.267   5.605  12.179  0.2270 -0.3248 -0.1775
 4634SOL    HW115343   6.176   5.620  12.155  0.3024 -0.5212 -0.5974
 4634SOL    HW215344   6.309   5.691  12.170 -0.0895 -0.0564  0.8180
 4635SOL     OW15345   2.836   6.710   1.186 -0.2706  0.1929  0.4423
 4635SOL    HW115346   2.847   6.772   1.113 -0.0252  0.4299  0.6808
 4635SOL    HW215347   2.920   6.666   1.194 -0.8704 -1.2378 -0.6819
 4636SOL     OW15348   1.760   6.109   8.105  0.5167 -0.0528  0.1083
 4636SOL    HW115349   1.848   6.077   8.083  0.5481  0.5865 -0.7406
 4636SOL    HW215350   1.737   6.168   8.033 -0.2808  0.4158  0.7296
 4637SOL     OW15351   4.602   2.459   2.903 -0.0060 -0.1497  0.2216
 4637SOL    HW115352   4.519   2.428   2.940 -0.0023 -0.0572  0.3090
 4637SOL    HW215353   4.609   2.549   2.934  0.2539 -0.2419  0.4323
 4638SOL     OW15354   0.382   6.796   4.976  0.7207 -0.3882 -0.9258
 4638SOL    HW115355   0.296   6.754   4.970  0.5051 -0.1070  0.0821
 4638SOL    HW215356   0.423   6.757   5.053  1.3992 -0.3298 -1.2483
 4639SOL     OW15357   7.127   5.211   0.514  0.1548 -0.8793 -0.3695
 4639SOL    HW115358   7.038   5.229   0.542  0.6512  3.1699 -0.7105
 4639SOL    HW215359   7.174   5.188   0.594 -0.6841 -0.5896  0.2145
 4640SOL     OW15360   5.482   2.950   6.336 -0.6681 -1.0366  0.5239
 4640SOL    HW115361   5.507   2.957   6.428  1.6831 -2.0211  0.0350
 4640SOL    HW215362   5.529   3.021   6.292  0.3271 -2.1356 -0.2583
 4641SOL     OW15363   6.206   7.558   8.188 -0.0858 -0.2316 -0.0830
 4641SOL    HW115364   6.145   7.554   8.262  0.0278 -3.4876 -0.0336
 4641SOL    HW215365   6.153   7.536   8.112  0.0546  1.8995 -0.8415
 4642SOL     OW15366   5.719   0.243   4.429 -0.0795 -0.0144  0.5671
 4642SOL    HW115367   5.800   0.279   4.465 -1.1959  2.2806  0.9574
 4642SOL    HW215368   5.649   0.292   4.472 -1.6261 -0.4803 -1.2517
 4643SOL     OW15369   6.951   7.345   1.962  0.2663  0.0123 -0.2178
 4643SOL    HW115370   6.921   7.386   2.043  1.3145 -0.1872  0.2757
 4643SOL    HW215371   6.891   7.272   1.949 -0.4423  0.5588 -0.0913
 4644SOL     OW15372   0.029   2.747   3.490 -0.0318  0.2908 -0.0829
 4644SOL    HW115373   0.062   2.784   3.571  1.9824  1.3646 -1.3117
 4644SOL    HW215374   0.100   2.692   3.458 -0.0585  1.2746 -1.9664
 4645SOL     OW15375   0.960   2.316  10.572  0.7147  0.3836  0.0459
 4645SOL    HW115376   0.896   2.261  10.616  0.8962  0.0937 -0.0502
 4645SOL    HW215377   1.036   2.315  10.629  0.3920  1.3089  0.5149
 4646SOL     OW15378   6.199   0.296   9.363  0.3707 -0.1828 -0.1131
 4646SOL    HW115379   6.268   0.251   9.412 -1.0237 -1.0042  1.1406
 4646SOL    HW215380   6.159   0.228   9.310 -0.0160  0.1213 -0.2121
 4647SOL     OW15381   3.047   2.078   0.743  0.7813  0.5007  0.0331
 4647SOL    HW115382   2.978   2.043   0.687  2.0632 -1.9146 -0.1618
 4647SOL    HW215383   3.114   2.110   0.683  1.2053 -0.1066  0.1674
 4648SOL     OW15384   7.019   7.741   1.756 -0.4977 -0.4663 -0.1572
 4648SOL    HW115385   6.927   7.725   1.736 -0.9302  0.4040  1.0583
 4648SOL    HW215386   7.053   7.785   1.678 -1.4535  0.3944 -0.1074
 4649SOL     OW15387   1.057   3.503   7.685 -0.2493 -0.2510  0.4487
 4649SOL    HW115388   1.060   3.586   7.734 -0.7522  0.4579 -0.6765
 4649SOL    HW215389   1.104   3.441   7.741 -0.0061  0.7476  1.4017
 4650SOL     OW15390   7.860   2.157  12.218 -0.0336  0.2484  0.1641
 4650SOL    HW115391   7.809   2.111  12.151 -0.5538  0.4305  0.4310
 4650SOL    HW215392   7.844   2.107  12.298  0.0256  0.4410  0.2963
 4651SOL     OW15393   4.738   2.816   8.447  0.9855  0.7067  0.5059
 4651SOL    HW115394   4.801   2.866   8.498  2.2088  0.9185 -1.1221
 4651SOL    HW215395   4.785   2.736   8.422  0.9245  1.2113 -1.3617
 4652SOL     OW15396   5.021   2.464   6.079 -0.1498  0.3448  0.3283
 4652SOL    HW115397   4.974   2.381   6.084 -0.1599  0.3669  0.6028
 4652SOL    HW215398   4.953   2.529   6.064 -0.3341  0.5020  1.6968
 4653SOL     OW15399   2.149   0.240  11.834  1.1456 -0.0969  0.0354
 4653SOL    HW115400   2.082   0.185  11.875 -0.2660  1.4531 -0.1134
 4653SOL    HW215401   2.193   0.282  11.908  1.3285 -0.3829  0.0924
 4654SOL     OW15402   7.073   7.225   9.644  0.2316 -0.2823  0.4368
 4654SOL    HW115403   7.130   7.149   9.649 -0.9081 -1.1870  0.0035
 4654SOL    HW215404   7.024   7.224   9.726  0.8228  0.5027  0.8166
 4655SOL     OW15405   6.182   1.092   6.525 -0.4058  0.1622 -0.4921
 4655SOL    HW115406   6.096   1.080   6.565 -0.9307  0.5222 -1.4792
 4655SOL    HW215407   6.233   1.139   6.591 -0.8380 -0.3940  0.2521
 4656SOL     OW15408   5.556   4.185   9.244  0.5060  0.1226 -0.0914
 4656SOL    HW115409   5.613   4.110   9.230 -1.1543 -0.8888 -1.8546
 4656SOL    HW215410   5.565   4.237   9.164 -0.6470  0.1878 -0.1981
 4657SOL     OW15411   6.267   5.036   6.231 -0.1321 -0.1515 -0.2471
 4657SOL    HW115412   6.221   5.090   6.296  1.7123 -0.0194  1.0516
 4657SOL    HW215413   6.359   5.064   6.239  1.1403 -4.0637  1.2197
 4658SOL     OW15414   1.198   4.272   6.033 -0.0402  0.1297  0.0869
 4658SOL    HW115415   1.175   4.293   6.123 -1.1516  1.3740 -0.4461
 4658SOL    HW215416   1.293   4.285   6.029 -0.2220  1.8880  0.6618
 4659SOL     OW15417   0.395   1.329   8.848  0.2584  0.6595 -0.6444
 4659SOL    HW115418   0.367   1.275   8.773  1.5328 -0.6557 -0.2214
 4659SOL    HW215419   0.399   1.268   8.921 -1.3982  2.0209  0.6614
 4660SOL     OW15420   1.915   1.926   9.876  0.9544  0.6478 -0.2382
 4660SOL    HW115421   1.950   2.015   9.870  0.0756  0.9262 -1.7123
 4660SOL    HW215422   1.820   1.938   9.873  0.7562 -0.2306  1.5285
 4661SOL     OW15423   5.862   1.031   7.983 -0.3350  0.3992 -0.3487
 4661SOL    HW115424   5.865   1.098   8.051  0.6301 -0.0333  0.0444
 4661SOL    HW215425   5.952   1.021   7.953 -0.2105 -1.6049  0.4862
 4662SOL     OW15426   2.047   0.392   9.834 -0.1196  0.2994  0.2117
 4662SOL    HW115427   2.017   0.348   9.913 -1.5748 -0.0630 -0.5029
 4662SOL    HW215428   2.117   0.336   9.800  0.0295  0.0888  0.8492
 4663SOL     OW15429   5.207   3.688   6.357 -0.3468 -0.0206 -0.4011
 4663SOL    HW115430   5.130   3.640   6.386  0.4391 -2.5722 -2.2006
 4663SOL    HW215431   5.177   3.741   6.284 -1.2011  2.3906  1.5453
 4664SOL     OW15432   2.121   1.417   8.364 -0.1301 -1.1201 -0.0502
 4664SOL    HW115433   2.158   1.505   8.357  0.0920 -0.8992  2.7464
 4664SOL    HW215434   2.197   1.359   8.366 -0.1390 -1.1224  0.5753
 4665SOL     OW15435   4.426   7.222   5.471 -0.2686  0.1993  0.0125
 4665SOL    HW115436   4.344   7.175   5.484 -0.4799  0.1495 -1.3918
 4665SOL    HW215437   4.406   7.312   5.497 -0.3142 -0.1092  1.1303
 4666SOL     OW15438   1.294   3.204  10.949 -0.8648 -0.5815 -0.1772
 4666SOL    HW115439   1.269   3.186  11.039 -0.5653 -0.2344 -0.0217
 4666SOL    HW215440   1.248   3.286  10.927  0.3386  0.2334  0.2122
 4667SOL     OW15441   3.498   1.903   7.036  1.3140 -0.1214 -0.2142
 4667SOL    HW115442   3.432   1.971   7.022 -0.6116 -1.5246  1.4069
 4667SOL    HW215443   3.495   1.851   6.955  0.1950 -0.3179 -0.0695
 4668SOL     OW15444   2.629   6.649   9.412  0.3059  0.2108  0.0095
 4668SOL    HW115445   2.674   6.726   9.446 -2.7088  1.7789  0.7696
 4668SOL    HW215446   2.576   6.618   9.485  0.2672 -1.6752 -0.7761
 4669SOL     OW15447   1.814   6.503   5.606  0.1868 -0.2134 -0.4246
 4669SOL    HW115448   1.794   6.458   5.524 -0.0241 -0.4849 -0.2247
 4669SOL    HW215449   1.760   6.459   5.671 -0.5177  0.7563 -0.3381
 4670SOL     OW15450   1.814   3.365   9.911 -0.7289 -0.2791  0.1188
 4670SOL    HW115451   1.885   3.324   9.960 -0.4549  0.8327  0.6963
 4670SOL    HW215452   1.803   3.310   9.833  1.1578 -0.1681 -0.2756
 4671SOL     OW15453   0.446   6.807   3.779  0.1710 -0.3981  0.0283
 4671SOL    HW115454   0.379   6.832   3.716  1.0283  0.4010 -0.5817
 4671SOL    HW215455   0.510   6.756   3.729  0.3357 -0.6369  0.4702
 4672SOL     OW15456   5.445   4.064   4.335 -0.5065 -0.0329  0.9083
 4672SOL    HW115457   5.397   4.117   4.271 -0.2993  0.1790  0.9278
 4672SOL    HW215458   5.537   4.084   4.319 -0.1149 -2.9911 -1.4410
 4673SOL     OW15459   1.951   7.299   3.521  0.1722  0.1136 -0.2235
 4673SOL    HW115460   1.889   7.367   3.544  0.8973  0.9218 -0.5800
 4673SOL    HW215461   1.925   7.223   3.573 -0.3417  0.8164  0.5599
 4674SOL     OW15462   0.391   0.808   1.376 -0.1643 -0.2652 -0.2131
 4674SOL    HW115463   0.356   0.877   1.319  0.6409 -0.2542 -0.7177
 4674SOL    HW215464   0.319   0.787   1.436 -1.4929 -1.1641 -2.0335
 4675SOL     OW15465   2.209   5.666   9.174  0.0040 -0.4476 -0.2417
 4675SOL    HW115466   2.169   5.698   9.255 -1.7381  1.5131 -1.7686
 4675SOL    HW215467   2.263   5.738   9.142  0.4774 -1.0976 -0.9815
 4676SOL     OW15468   1.681   3.462   4.246  0.1198  0.0612 -0.0714
 4676SOL    HW115469   1.616   3.435   4.181 -0.9265  1.7136  0.2252
 4676SOL    HW215470   1.745   3.513   4.197 -0.2726  0.6812  0.0404
 4677SOL     OW15471   5.875   5.010  12.360  0.0099 -0.0107 -0.4646
 4677SOL    HW115472   5.948   5.051  12.407  0.1950 -0.8458 -0.0030
 4677SOL    HW215473   5.911   4.988  12.274  0.3539 -0.5394 -0.1937
 4678SOL     OW15474   2.176   4.522   6.228  0.0096 -0.1069  0.3455
 4678SOL    HW115475   2.271   4.516   6.238  0.1365  1.5324  0.4174
 4678SOL    HW215476   2.144   4.433   6.244  1.4133 -0.4144  1.6499
 4679SOL     OW15477   1.479   7.159   7.222  0.7588 -0.1594  0.5304
 4679SOL    HW115478   1.467   7.216   7.146  1.3375 -2.5158 -1.4730
 4679SOL    HW215479   1.574   7.148   7.230  0.6635 -0.7475  0.9358
 4680SOL     OW15480   3.670   0.346   6.482  0.0820 -0.1731  0.0445
 4680SOL    HW115481   3.728   0.353   6.558 -1.8561  0.5758  1.5460
 4680SOL    HW215482   3.640   0.256   6.483 -0.9925  0.1598  1.0630
 4681SOL     OW15483   1.510   6.371   3.587 -0.5957  0.1144  0.6180
 4681SOL    HW115484   1.524   6.401   3.497 -3.2163  0.7857  0.3494
 4681SOL    HW215485   1.515   6.451   3.640  0.7147 -0.2472  1.0622
 4682SOL     OW15486   7.584   5.725   0.754 -0.1207 -0.0382  0.5556
 4682SOL    HW115487   7.550   5.766   0.833 -2.9213 -0.8625 -0.1118
 4682SOL    HW215488   7.523   5.750   0.685  1.1461 -0.9181 -0.9711
 4683SOL     OW15489   6.935   5.710  10.587 -0.5089  0.2058  0.0724
 4683SOL    HW115490   7.003   5.643  10.580  0.9224  1.3565  2.2763
 4683SOL    HW215491   6.891   5.691  10.670 -0.9099  1.2604  0.1097
 4684SOL     OW15492   3.117   0.658   4.307  0.2864  0.3156 -0.2972
 4684SOL    HW115493   3.206   0.678   4.278  0.3627 -1.4383 -1.4227
 4684SOL    HW215494   3.078   0.611   4.233 -0.7056 -1.2093  1.1330
 4685SOL     OW15495   7.631   3.174   1.212  0.0805  0.5664 -0.6013
 4685SOL    HW115496   7.642   3.084   1.244 -0.1538  0.4083 -0.9588
 4685SOL    HW215497   7.721   3.206   1.203  0.2134 -0.0391 -1.5952
 4686SOL     OW15498   1.295   1.421   4.720 -0.3823 -0.0539  0.3498
 4686SOL    HW115499   1.305   1.335   4.680 -1.4518  0.3259 -0.8266
 4686SOL    HW215500   1.201   1.427   4.740  0.0514 -0.1045  2.7329
 4687SOL     OW15501   6.429   5.099   0.394 -0.4733 -0.1053 -0.1417
 4687SOL    HW115502   6.479   5.043   0.335 -0.5161 -0.5811  0.2628
 4687SOL    HW215503   6.481   5.178   0.403  0.3412 -0.6944  0.4797
 4688SOL     OW15504   0.694   5.324  11.916 -0.5345 -0.4638  0.0634
 4688SOL    HW115505   0.663   5.322  12.006  0.3095 -4.2941  0.4309
 4688SOL    HW215506   0.783   5.358  11.922 -1.2476  1.4908  0.2751
 4689SOL     OW15507   6.767   4.334  10.437  0.0359  0.0276  0.3043
 4689SOL    HW115508   6.672   4.332  10.445  0.0663  0.5764  0.8721
 4689SOL    HW215509   6.799   4.292  10.516  0.2604 -1.7445 -0.6790
 4690SOL     OW15510   7.236   7.612   5.289  0.8823 -1.0232 -0.3472
 4690SOL    HW115511   7.150   7.585   5.321 -0.7043  1.6274 -1.9425
 4690SOL    HW215512   7.262   7.542   5.230 -1.3634 -0.8604 -1.6596
 4691SOL     OW15513   4.182   6.980   9.899 -0.0872  0.3293  0.0960
 4691SOL    HW115514   4.190   7.005   9.807 -0.2782  0.7496  0.1888
 4691SOL    HW215515   4.093   7.006   9.923 -0.1125  0.0186  0.3395
 4692SOL     OW15516   0.865   4.898   2.005  0.2106  0.5707 -0.0210
 4692SOL    HW115517   0.942   4.923   1.953  0.0103 -0.0379 -0.6299
 4692SOL    HW215518   0.791   4.930   1.953  0.0134  0.0665 -0.0556
 4693SOL     OW15519   0.009   4.881   0.693 -0.3729  0.1897  0.7657
 4693SOL    HW115520  -0.080   4.917   0.692 -0.0038  1.2266 -1.2708
 4693SOL    HW215521   0.066   4.957   0.708  0.2130 -0.2540  0.8333
 4694SOL     OW15522   6.377   3.246  10.908  0.0259  0.1529 -0.2786
 4694SOL    HW115523   6.354   3.326  10.954 -0.2196  0.8063 -1.4932
 4694SOL    HW215524   6.336   3.176  10.959 -0.5902  0.8855  0.2477
 4695SOL     OW15525   4.806   3.071   8.318  0.3122  0.1153  0.1290
 4695SOL    HW115526   4.775   3.061   8.228 -2.2438  0.0280  0.9446
 4695SOL    HW215527   4.753   3.009   8.368  1.9608 -0.1201  1.6752
 4696SOL     OW15528   7.524   2.945   7.924 -0.4950 -0.1810 -0.8142
 4696SOL    HW115529   7.619   2.937   7.920 -0.0279  3.3625 -0.4906
 4696SOL    HW215530   7.498   2.970   7.835 -0.9935 -0.2099 -0.6826
 4697SOL     OW15531   4.188   0.482   4.356 -0.3130 -0.1011 -0.0546
 4697SOL    HW115532   4.166   0.420   4.426 -0.4286  0.6938  0.6423
 4697SOL    HW215533   4.168   0.436   4.275  4.7234 -3.1357  0.0352
 4698SOL     OW15534   2.259   5.690   5.559 -0.4752 -0.3749 -0.3750
 4698SOL    HW115535   2.351   5.710   5.578 -0.1784 -1.0646 -1.0310
 4698SOL    HW215536   2.261   5.651   5.471 -1.3335 -0.9127 -0.1612
 4699SOL     OW15537   6.598   7.054   5.788 -0.0380  0.1715  0.5891
 4699SOL    HW115538   6.541   7.081   5.716 -0.1994 -0.5866  0.4184
 4699SOL    HW215539   6.685   7.047   5.749 -0.4555 -2.2383 -0.0898
 4700SOL     OW15540   2.279   5.864   3.278  0.0557 -0.0747  0.3411
 4700SOL    HW115541   2.310   5.780   3.312  0.9336 -0.4940 -1.3845
 4700SOL    HW215542   2.184   5.854   3.273  0.2538 -1.6307 -1.3842
 4701SOL     OW15543   0.242   0.691   5.116 -0.3039 -0.1236 -0.3795
 4701SOL    HW115544   0.312   0.628   5.131  0.6657  0.7887 -0.9980
 4701SOL    HW215545   0.231   0.694   5.021 -1.3955 -0.4816 -0.2730
 4702SOL     OW15546   1.583   2.959  11.852 -0.0736 -0.3354 -0.1027
 4702SOL    HW115547   1.497   2.993  11.828 -0.5795  0.0860  2.0729
 4702SOL    HW215548   1.643   3.001  11.790 -1.0395  2.2043  0.5486
 4703SOL     OW15549   6.360   6.352   7.071 -0.1450 -0.3246  0.5518
 4703SOL    HW115550   6.308   6.271   7.071 -1.7231  0.4427 -3.7365
 4703SOL    HW215551   6.434   6.333   7.013 -1.3652  1.6195 -1.8042
 4704SOL     OW15552   2.884   1.379   2.429 -0.3728 -0.2703  0.1430
 4704SOL    HW115553   2.809   1.344   2.381 -2.0096  1.5317  1.2271
 4704SOL    HW215554   2.948   1.400   2.361  0.1075 -3.7387 -0.6765
 4705SOL     OW15555   4.511   0.270   9.824  0.5434  0.3692 -0.0617
 4705SOL    HW115556   4.440   0.251   9.762  1.2113  2.1855 -1.4640
 4705SOL    HW215557   4.484   0.351   9.867  0.8255 -0.0413  0.8986
 4706SOL     OW15558   5.617   1.672  12.181 -0.5453 -0.4795  0.1464
 4706SOL    HW115559   5.552   1.687  12.112  0.0346 -0.7002 -0.4618
 4706SOL    HW215560   5.639   1.579  12.173  1.3237  0.0043 -1.0144
 4707SOL     OW15561   1.189   0.590  12.166  0.2045 -0.5194  0.2773
 4707SOL    HW115562   1.206   0.657  12.099  0.0080 -1.3982 -0.6886
 4707SOL    HW215563   1.102   0.556  12.144  1.0369 -2.3372 -0.3802
 4708SOL     OW15564   2.019   0.378   3.564  0.2551  0.7014  0.2499
 4708SOL    HW115565   1.990   0.445   3.503 -0.4893  0.0033 -0.1797
 4708SOL    HW215566   2.032   0.300   3.510  1.8258  0.6694  0.6178
 4709SOL     OW15567   2.380   7.043   2.351 -0.1980  0.1384 -0.1035
 4709SOL    HW115568   2.409   6.977   2.289  0.3515  2.3221 -2.3438
 4709SOL    HW215569   2.433   7.027   2.430  1.3197 -0.8829 -1.2628
 4710SOL     OW15570   1.081   7.633  11.029 -0.0753  0.4624  0.4911
 4710SOL    HW115571   1.068   7.538  11.027 -2.3411  0.6994 -1.5150
 4710SOL    HW215572   1.072   7.657  11.121  0.0913 -1.2185  0.9735
 4711SOL     OW15573   5.579   1.848   7.454 -0.3467  0.1550  0.4684
 4711SOL    HW115574   5.527   1.875   7.378  0.8819  1.6867  0.1403
 4711SOL    HW215575   5.605   1.758   7.434 -1.0677  0.1045 -0.3318
 4712SOL     OW15576   2.147   5.313   7.386  0.3783 -0.2049 -0.1851
 4712SOL    HW115577   2.099   5.276   7.312 -0.6270 -0.1665  0.4255
 4712SOL    HW215578   2.162   5.404   7.361 -0.6893  0.0324 -0.0060
 4713SOL     OW15579   1.016   4.851   8.531  0.0077  0.1871  0.3582
 4713SOL    HW115580   1.042   4.921   8.470  2.6625 -1.9905 -1.2262
 4713SOL    HW215581   1.093   4.796   8.539 -1.0753 -1.0725  3.8192
 4714SOL     OW15582   0.888   7.299   8.248 -0.6330 -0.5376 -0.2309
 4714SOL    HW115583   0.794   7.293   8.229 -1.3660 -3.3672  3.1286
 4714SOL    HW215584   0.926   7.223   8.204 -0.1951 -0.2300 -0.3871
 4715SOL     OW15585   4.250   3.299   0.735  0.0765  0.3219 -0.1161
 4715SOL    HW115586   4.241   3.298   0.831 -0.0701 -0.4427 -0.1246
 4715SOL    HW215587   4.344   3.300   0.719  0.1310 -0.5553  0.0580
 4716SOL     OW15588   0.327   1.386  12.272 -1.0143  0.1875 -0.1000
 4716SOL    HW115589   0.377   1.313  12.236 -1.5381  0.4309 -1.3771
 4716SOL    HW215590   0.276   1.348  12.344 -1.8246 -0.8790 -1.1993
 4717SOL     OW15591   5.660   6.622   8.950 -0.0451 -0.5369  0.1872
 4717SOL    HW115592   5.582   6.663   8.987  0.6776  1.7616 -0.7010
 4717SOL    HW215593   5.733   6.673   8.984  0.8277 -0.4124 -1.7521
 4718SOL     OW15594   5.857   6.168   9.308  0.0232  0.1505  0.4960
 4718SOL    HW115595   5.920   6.240   9.314 -0.6488  0.6265  3.3362
 4718SOL    HW215596   5.822   6.160   9.397 -0.1373 -3.5180  0.2575
 4719SOL     OW15597   2.297   5.152  12.143  0.3622  0.0545  0.2119
 4719SOL    HW115598   2.252   5.125  12.063  0.3380  0.5739  0.0460
 4719SOL    HW215599   2.388   5.164  12.117  0.9302 -2.3652  0.8531
 4720SOL     OW15600   3.910   4.527   2.611 -0.3134  0.3261  0.4441
 4720SOL    HW115601   3.909   4.448   2.557 -0.0398  0.4272  0.2882
 4720SOL    HW215602   3.872   4.595   2.555 -0.3031  0.3638  0.4827
 4721SOL     OW15603   0.438   7.086  11.508 -0.8905 -0.7749  0.1237
 4721SOL    HW115604   0.419   6.994  11.491  0.8545 -1.0090 -0.7908
 4721SOL    HW215605   0.519   7.103  11.460 -1.6179  1.4684 -0.4406
 4722SOL     OW15606   4.440   2.138   5.131 -0.3960 -0.1555  0.0645
 4722SOL    HW115607   4.510   2.073   5.135 -0.6460 -0.3849  1.2554
 4722SOL    HW215608   4.391   2.124   5.212 -0.7572  1.1930  0.0942
 4723SOL     OW15609   3.298   1.173   1.771  0.9429 -0.4392 -0.2682
 4723SOL    HW115610   3.303   1.211   1.858 -1.5729  1.3617 -0.8101
 4723SOL    HW215611   3.341   1.088   1.780 -1.6727 -1.6401  3.5157
 4724SOL     OW15612   3.791   2.018   5.247 -0.0648 -0.0380 -0.3913
 4724SOL    HW115613   3.873   1.971   5.259 -0.9606 -1.8358 -0.9368
 4724SOL    HW215614   3.803   2.101   5.294  1.1665 -1.2779  1.6137
 4725SOL     OW15615   7.206   6.610   9.933  0.1461 -0.2044 -0.1189
 4725SOL    HW115616   7.163   6.550   9.994 -1.4614  2.7660  1.9202
 4725SOL    HW215617   7.144   6.617   9.859 -0.8303  0.6956  0.7549
 4726SOL     OW15618   6.731   4.215   7.334  0.1519  0.5914 -0.2015
 4726SOL    HW115619   6.685   4.298   7.322  1.5991  1.4548 -0.0746
 4726SOL    HW215620   6.676   4.165   7.395  0.7721  2.7647  2.3174
 4727SOL     OW15621   1.955   6.449   8.860  0.4436 -0.4054  0.1265
 4727SOL    HW115622   2.026   6.496   8.904  0.0343 -0.4149  0.8054
 4727SOL    HW215623   1.972   6.357   8.879 -0.9174 -0.2903  2.0978
 4728SOL     OW15624   6.602   4.750   7.044 -0.6297 -0.0605 -0.1034
 4728SOL    HW115625   6.583   4.844   7.041 -1.3647 -0.1842  0.3793
 4728SOL    HW215626   6.516   4.709   7.051 -0.2809 -0.7525  0.1905
 4729SOL     OW15627   5.160   3.316  11.866  0.2452  0.0987 -0.0609
 4729SOL    HW115628   5.108   3.262  11.807  0.8606 -0.0069 -0.5150
 4729SOL    HW215629   5.123   3.298  11.953 -0.4418 -0.0042 -0.3703
 4730SOL     OW15630   4.093   1.636  11.234  0.3895  0.2166  0.4966
 4730SOL    HW115631   4.062   1.596  11.315 -2.7975  0.7184 -0.3478
 4730SOL    HW215632   4.138   1.715  11.262 -0.3152  0.1813  1.8127
 4731SOL     OW15633   6.074   7.839   8.329  0.2305 -0.0731 -0.2913
 4731SOL    HW115634   6.129   7.817   8.405 -0.2228 -2.0455 -0.4807
 4731SOL    HW215635   6.094   7.771   8.265 -1.8527 -0.3877 -0.6640
 4732SOL     OW15636   7.906   4.052   7.538  0.1846 -0.5574  0.0852
 4732SOL    HW115637   7.816   4.057   7.570  0.2701 -0.4766  0.3120
 4732SOL    HW215638   7.920   3.959   7.521 -0.0910 -0.5190 -0.3867
 4733SOL     OW15639   1.488   3.840   8.544  0.6325  0.4657  0.4791
 4733SOL    HW115640   1.575   3.822   8.580  0.4083  1.7344  1.7423
 4733SOL    HW215641   1.501   3.915   8.486  0.5249  0.0892 -0.0371
 4734SOL     OW15642   6.740   4.099  10.001  0.0360 -0.1862 -0.3235
 4734SOL    HW115643   6.655   4.102   9.958 -0.3352  1.7487  0.4448
 4734SOL    HW215644   6.803   4.108   9.929 -0.4634 -0.0515 -0.7527
 4735SOL     OW15645   5.590   6.868  12.338 -0.6619  0.6414 -0.3480
 4735SOL    HW115646   5.610   6.776  12.353  1.8944  1.1991  0.1572
 4735SOL    HW215647   5.496   6.870  12.322 -0.8974 -1.9567  0.2844
 4736SOL     OW15648   0.660   7.544   9.055  0.2226  0.1111  0.2301
 4736SOL    HW115649   0.721   7.613   9.029 -0.1511  0.2423 -0.2974
 4736SOL    HW215650   0.618   7.517   8.974  0.4619 -0.8370  0.4114
 4737SOL     OW15651   4.619   2.460   6.911  0.3624 -0.1962 -0.1088
 4737SOL    HW115652   4.583   2.513   6.840 -1.9791  0.5515  1.5240
 4737SOL    HW215653   4.637   2.523   6.981  1.4862 -1.0586  0.4040
 4738SOL     OW15654   1.166   0.939   5.680  0.3815 -0.3574  0.8336
 4738SOL    HW115655   1.215   1.016   5.708  1.3573 -0.6644  0.0493
 4738SOL    HW215656   1.081   0.973   5.653  0.1363  0.1874  2.2258
 4739SOL     OW15657   4.442   7.538  10.844 -0.3611 -0.3233  0.6495
 4739SOL    HW115658   4.496   7.616  10.836 -2.0475  0.7380 -2.7281
 4739SOL    HW215659   4.492   7.469  10.800  0.5123 -0.8193  2.3665
 4740SOL     OW15660   2.746   2.859   1.857 -0.0813 -0.1134  0.0969
 4740SOL    HW115661   2.774   2.918   1.926 -1.9163  0.4862  0.3963
 4740SOL    HW215662   2.796   2.779   1.871  2.5039  1.3304 -0.3439
 4741SOL     OW15663   3.915   1.429   3.114  0.3658  0.2883 -0.1317
 4741SOL    HW115664   3.980   1.375   3.159  0.5493 -1.8102 -2.6721
 4741SOL    HW215665   3.832   1.404   3.155  0.5346 -1.5231 -0.7992
 4742SOL     OW15666   4.568   1.331   2.973  0.5491 -0.0393  0.1382
 4742SOL    HW115667   4.564   1.241   3.005  0.0734  0.1040  0.4960
 4742SOL    HW215668   4.662   1.347   2.959  0.4915 -1.8583 -3.6277
 4743SOL     OW15669   6.782   6.243  11.345  0.5738  0.3886 -0.4111
 4743SOL    HW115670   6.737   6.278  11.267  0.1935 -0.8067 -0.7444
 4743SOL    HW215671   6.840   6.314  11.372 -0.8965  1.6876 -0.4669
 4744SOL     OW15672   1.510   2.735   6.500 -0.1311 -0.6675 -0.1102
 4744SOL    HW115673   1.568   2.747   6.425 -1.4202  0.9490 -0.8875
 4744SOL    HW215674   1.425   2.714   6.462 -0.1985 -2.7751  1.0097
 4745SOL     OW15675   2.100   7.622   8.430  0.2714  0.2359 -0.2568
 4745SOL    HW115676   2.094   7.558   8.501 -1.6956  0.3320 -0.2797
 4745SOL    HW215677   2.156   7.580   8.365  0.4773 -0.7087  0.5010
 4746SOL     OW15678   0.908   0.763   3.142 -0.8470 -0.3240  0.3386
 4746SOL    HW115679   0.946   0.698   3.082 -0.9587  0.1249 -0.2238
 4746SOL    HW215680   0.982   0.818   3.168 -0.9578  0.0603 -0.1346
 4747SOL     OW15681   0.738   6.388   0.409 -0.2934  0.0817  0.0706
 4747SOL    HW115682   0.799   6.426   0.472  1.1629 -0.1935 -1.1106
 4747SOL    HW215683   0.657   6.376   0.459  0.0824  1.9760  1.2524
 4748SOL     OW15684   1.203   5.183   9.730 -0.2276 -0.2062  0.5548
 4748SOL    HW115685   1.215   5.094   9.696  0.3642 -0.8225  2.2510
 4748SOL    HW215686   1.122   5.179   9.780  0.2910 -0.0495  1.4132
 4749SOL     OW15687   5.246   0.078   9.084 -0.1720  0.3378  0.1383
 4749SOL    HW115688   5.193   0.010   9.125  1.3543 -1.0784 -0.1517
 4749SOL    HW215689   5.316   0.095   9.147  0.3214  0.5335 -0.4540
 4750SOL     OW15690   5.468   3.930   6.848  0.7976  0.7967  0.0039
 4750SOL    HW115691   5.459   3.927   6.943  2.3962 -1.4794  0.1692
 4750SOL    HW215692   5.389   3.975   6.818 -0.0645  0.9960  2.3534
 4751SOL     OW15693   5.810   0.926   4.736 -0.4142  0.2171  0.4717
 4751SOL    HW115694   5.840   1.004   4.689  0.9853  0.2357  1.3466
 4751SOL    HW215695   5.721   0.949   4.765 -0.8831  0.6040 -1.2037
 4752SOL     OW15696   4.911   1.869  12.408  0.1760  0.0910  0.0127
 4752SOL    HW115697   4.910   1.951  12.359 -0.8224 -0.1750 -0.4344
 4752SOL    HW215698   4.987   1.822  12.373 -0.4330 -0.0321 -1.2055
 4753SOL     OW15699   0.550   2.922  10.281 -0.1441 -0.2787 -0.1641
 4753SOL    HW115700   0.628   2.915  10.226  1.2627  0.9041  1.5692
 4753SOL    HW215701   0.512   2.834  10.281  1.0045 -0.7953 -1.2913
 4754SOL     OW15702   5.907   7.781   0.279  0.1196 -0.3871 -0.1238
 4754SOL    HW115703   5.941   7.749   0.195  1.4614 -2.5795  1.1378
 4754SOL    HW215704   5.980   7.831   0.316 -0.2251  0.0123  0.0162
 4755SOL     OW15705   7.692   1.363  11.168 -0.4023  0.4875 -0.0255
 4755SOL    HW115706   7.716   1.292  11.229 -1.1246  0.9094  0.7773
 4755SOL    HW215707   7.753   1.353  11.095 -0.1277 -0.6252  0.3229
 4756SOL     OW15708   5.957   5.400   3.851  0.1006  0.4158  0.1386
 4756SOL    HW115709   5.960   5.305   3.865 -1.3212  0.4672  0.9533
 4756SOL    HW215710   6.030   5.418   3.792  0.7175 -1.1108  0.4022
 4757SOL     OW15711   6.706   5.861   0.998  0.4868 -0.2831 -0.5471
 4757SOL    HW115712   6.715   5.844   1.092 -1.6078  0.4408 -0.1603
 4757SOL    HW215713   6.659   5.785   0.964  2.0282 -0.9690 -1.2174
 4758SOL     OW15714   5.526   4.833  10.552 -0.4132  0.2798 -0.7595
 4758SOL    HW115715   5.525   4.871  10.639  1.4095 -0.5309 -0.3211
 4758SOL    HW215716   5.564   4.901  10.496  2.0145 -0.4489 -0.1414
 4759SOL     OW15717   7.835   3.463   3.032 -0.0554  0.2225  0.1498
 4759SOL    HW115718   7.757   3.409   3.019 -0.6423  1.1448 -0.2293
 4759SOL    HW215719   7.872   3.473   2.944 -0.1016  0.6507  0.1763
 4760SOL     OW15720   0.667   3.502   6.314 -0.3899  0.4605 -0.1720
 4760SOL    HW115721   0.651   3.407   6.309 -1.7679  0.6718 -0.0960
 4760SOL    HW215722   0.657   3.523   6.407 -2.4676  1.0470 -0.4904
 4761SOL     OW15723   3.263   2.497  12.133  0.3668 -0.4150  0.0266
 4761SOL    HW115724   3.245   2.414  12.089  0.8852 -0.6661  0.2886
 4761SOL    HW215725   3.350   2.487  12.171  1.2700  0.9111 -1.5192
 4762SOL     OW15726   6.845   5.482   9.787  0.2891 -0.1743 -0.3221
 4762SOL    HW115727   6.753   5.500   9.769  0.1024 -0.5775  0.2305
 4762SOL    HW215728   6.850   5.387   9.796  0.2867 -0.0013  2.1249
 4763SOL     OW15729   4.306   6.481   3.613  0.1946 -0.0115  0.0096
 4763SOL    HW115730   4.275   6.391   3.614  2.3639 -0.8360 -0.7332
 4763SOL    HW215731   4.246   6.527   3.555  0.4918 -1.5912 -1.6384
 4764SOL     OW15732   7.962   2.020   0.365  0.5088 -0.1058 -0.9640
 4764SOL    HW115733   8.028   2.090   0.360 -1.7505  2.0622 -2.7025
 4764SOL    HW215734   7.988   1.959   0.295  1.4855 -0.0829 -0.6420
 4765SOL     OW15735   5.146   5.031   5.564  0.8930 -0.1545  0.3405
 4765SOL    HW115736   5.228   4.984   5.550  1.0142 -0.2062  1.1791
 4765SOL    HW215737   5.083   4.985   5.507  1.5705  0.3060 -0.8244
 4766SOL     OW15738   0.565   7.940   0.839 -0.3480 -0.1066 -0.0815
 4766SOL    HW115739   0.648   7.897   0.861  0.9513  0.6057 -3.0404
 4766SOL    HW215740   0.534   7.976   0.922  2.4708 -0.1175  1.1004
 4767SOL     OW15741   6.280   4.371   9.696 -0.0098 -0.1362 -0.2794
 4767SOL    HW115742   6.263   4.343   9.786  0.5235  2.8243  0.8458
 4767SOL    HW215743   6.369   4.341   9.677  0.8405  1.3422  1.1561
 4768SOL     OW15744   1.125   5.124   6.873  0.0436  0.1417  0.1872
 4768SOL    HW115745   1.090   5.107   6.961 -0.2382 -0.5213 -0.0494
 4768SOL    HW215746   1.212   5.160   6.889  0.0180 -0.0281  0.7396
 4769SOL     OW15747   4.833   4.321  10.752 -0.2096  0.1903 -0.3101
 4769SOL    HW115748   4.830   4.412  10.722 -2.6239  0.7494  1.3421
 4769SOL    HW215749   4.867   4.327  10.842  0.7212 -0.7050 -0.5838
 4770SOL     OW15750   3.567   6.240   8.447  0.1091 -0.0674  0.0744
 4770SOL    HW115751   3.531   6.241   8.358 -0.2665 -1.9508  0.1713
 4770SOL    HW215752   3.492   6.219   8.503  0.7734 -1.1775  0.5813
 4771SOL     OW15753   2.487   3.961   9.817  0.0152 -0.1929  0.2001
 4771SOL    HW115754   2.421   3.964   9.747  0.3563 -1.8560 -0.2347
 4771SOL    HW215755   2.530   4.046   9.813 -1.3497  0.5008 -0.2510
 4772SOL     OW15756   6.752   7.268   4.409 -0.6405 -0.5805 -0.2473
 4772SOL    HW115757   6.743   7.265   4.505 -2.1687 -0.8208 -0.3767
 4772SOL    HW215758   6.843   7.245   4.393 -0.0479  0.5449  1.2072
 4773SOL     OW15759   5.700   5.739  11.155  0.0521 -0.8116 -0.1139
 4773SOL    HW115760   5.722   5.692  11.074 -0.3392  1.2837 -1.5080
 4773SOL    HW215761   5.782   5.784  11.179 -0.8462  2.0317 -1.8615
 4774SOL     OW15762   7.876   1.122  11.764 -0.1645 -0.5545 -0.4051
 4774SOL    HW115763   7.802   1.091  11.817 -0.0393  0.8175  0.6407
 4774SOL    HW215764   7.951   1.073  11.796 -0.6937 -2.6244 -2.0862
 4775SOL     OW15765   1.572   7.137   4.865 -0.2990 -0.0087 -0.4540
 4775SOL    HW115766   1.590   7.127   4.959 -0.3346 -1.6297 -0.5932
 4775SOL    HW215767   1.478   7.156   4.861 -0.7310 -1.9032 -0.2229
 4776SOL     OW15768   7.009   2.728   7.361 -0.4384  0.4350  0.0059
 4776SOL    HW115769   7.025   2.813   7.402 -1.8015  0.4197  0.6202
 4776SOL    HW215770   7.090   2.679   7.376 -0.1235  1.1644  0.7986
 4777SOL     OW15771   5.459   3.359   8.460 -0.2450  0.4389 -0.1476
 4777SOL    HW115772   5.409   3.395   8.387  1.5808  1.6483 -0.8734
 4777SOL    HW215773   5.512   3.289   8.421  0.1804  0.5825  0.1632
 4778SOL     OW15774   2.526   5.575   8.563 -0.6620 -0.2713  0.3641
 4778SOL    HW115775   2.464   5.508   8.533  1.6180 -1.7527 -1.4056
 4778SOL    HW215776   2.558   5.615   8.482 -1.1212  2.2896  1.3400
 4779SOL     OW15777   4.973   2.320   6.564 -0.3699  0.6153  0.2029
 4779SOL    HW115778   4.885   2.350   6.543 -1.0118 -1.3094 -0.1029
 4779SOL    HW215779   5.029   2.362   6.499 -1.6618 -1.3378 -2.3790
 4780SOL     OW15780   4.198   7.907   0.097 -0.3187 -0.2991  0.5449
 4780SOL    HW115781   4.106   7.896   0.072 -0.2031 -1.0871  0.4547
 4780SOL    HW215782   4.215   7.835   0.158  0.3976 -0.4862  0.1281
 4781SOL     OW15783   1.161   1.451   6.298  0.0312  0.7400 -0.0374
 4781SOL    HW115784   1.185   1.525   6.241 -0.3630  1.6583  0.9685
 4781SOL    HW215785   1.128   1.385   6.237 -1.7843  2.2469 -0.7953
 4782SOL     OW15786   0.324   0.313  12.439  0.3785  0.5670  0.1291
 4782SOL    HW115787   0.386   0.268  12.381  1.8945  2.6514  0.0237
 4782SOL    HW215788   0.348   0.283  12.527 -0.7064 -1.1591 -0.1046
 4783SOL     OW15789   7.070   1.947   4.788 -0.2703 -0.6352 -0.6945
 4783SOL    HW115790   7.143   2.007   4.805 -0.5813 -0.1246 -1.1573
 4783SOL    HW215791   6.995   2.004   4.770 -0.7456 -1.1581 -0.4105
 4784SOL     OW15792   1.884   3.590   2.158 -0.1556 -0.2412  0.8454
 4784SOL    HW115793   1.977   3.580   2.181 -0.2333 -0.7330  0.9507
 4784SOL    HW215794   1.845   3.505   2.176 -0.4122 -0.3663 -0.2195
 4785SOL     OW15795   6.687   0.267   6.496  0.0531  0.2221  0.3113
 4785SOL    HW115796   6.716   0.180   6.524  0.2509 -0.6992 -2.5101
 4785SOL    HW215797   6.768   0.317   6.484 -0.0295  0.5791  1.1093
 4786SOL     OW15798   6.086   2.902   6.798 -0.0730 -0.2101 -0.1338
 4786SOL    HW115799   6.069   2.895   6.704 -0.0478 -0.3694 -0.1276
 4786SOL    HW215800   6.012   2.952   6.832  0.8747  1.5355 -0.5188
 4787SOL     OW15801   2.841   2.879   4.046 -0.5692  0.0599 -0.0985
 4787SOL    HW115802   2.875   2.804   3.998 -1.6494  0.0444 -0.8599
 4787SOL    HW215803   2.863   2.955   3.991 -0.7190  0.1678 -0.0101
 4788SOL     OW15804   6.668   7.251   2.895  0.2834 -0.1372  0.3754
 4788SOL    HW115805   6.628   7.176   2.938  0.7626 -0.6821 -0.1131
 4788SOL    HW215806   6.750   7.265   2.941  2.4425 -2.7847 -2.2812
 4789SOL     OW15807   5.839   6.912   3.491  0.3584  0.0613  0.2665
 4789SOL    HW115808   5.778   6.908   3.564  0.4476  2.2027  0.5192
 4789SOL    HW215809   5.889   6.830   3.497  0.1655  0.0466  2.4062
 4790SOL     OW15810   5.598   0.538   3.198  0.3816  0.5015 -0.1037
 4790SOL    HW115811   5.675   0.483   3.208  0.3369  0.5619  0.5948
 4790SOL    HW215812   5.627   0.613   3.147  1.1251  1.1979  1.2951
 4791SOL     OW15813   7.556   7.031  11.202 -0.3056 -0.7170  0.5057
 4791SOL    HW115814   7.611   7.098  11.162 -1.4860  0.3531  0.6380
 4791SOL    HW215815   7.613   6.991  11.269  0.3188  0.3586  0.6398
 4792SOL     OW15816   0.882   6.898   5.642 -0.4932 -0.2789 -0.5228
 4792SOL    HW115817   0.917   6.930   5.725 -0.9376 -1.2188  0.0320
 4792SOL    HW215818   0.955   6.850   5.602 -0.5321 -0.5227 -0.2996
 4793SOL     OW15819   2.747   6.303   0.054 -0.3546 -0.4515 -0.2711
 4793SOL    HW115820   2.711   6.392   0.046  1.9717  0.5587 -0.5001
 4793SOL    HW215821   2.762   6.292   0.148 -2.2360 -1.3352 -0.0409
 4794SOL     OW15822   5.382   3.646   3.777  0.0917 -0.0516  0.5758
 4794SOL    HW115823   5.288   3.630   3.785  0.3261 -0.2971  4.0723
 4794SOL    HW215824   5.424   3.574   3.824  2.0950 -0.0061 -0.9807
 4795SOL     OW15825   7.215   1.622   1.539 -0.0223 -0.3623  0.5006
 4795SOL    HW115826   7.164   1.542   1.526 -2.7395  1.4350 -0.8007
 4795SOL    HW215827   7.252   1.641   1.452 -1.6206  1.1485  0.1124
 4796SOL     OW15828   2.355   4.002   1.669  0.1383 -0.7353 -0.2360
 4796SOL    HW115829   2.290   3.990   1.739  0.2848 -0.8865 -0.1227
 4796SOL    HW215830   2.307   4.045   1.598  0.1097 -0.0960  0.1557
 4797SOL     OW15831   3.051   3.838  12.323  0.2825 -0.2825  0.3310
 4797SOL    HW115832   3.115   3.867  12.388 -0.0638 -0.2796  0.6728
 4797SOL    HW215833   3.089   3.863  12.239  0.8610 -0.5312  0.5127
 4798SOL     OW15834   1.610   2.925   0.364  0.5353  0.1629 -0.2645
 4798SOL    HW115835   1.647   2.846   0.403  0.9206  0.5799  0.2282
 4798SOL    HW215836   1.679   2.991   0.373  0.0697  0.6619 -0.3020
 4799SOL     OW15837   3.057   1.160   2.374  0.0694 -0.5096 -0.1446
 4799SOL    HW115838   2.987   1.209   2.417  1.2756  1.1166  0.0637
 4799SOL    HW215839   3.078   1.089   2.435  0.4391  0.6224  1.0910
 4800SOL     OW15840   5.068   0.330   0.770  0.0383 -0.0043 -1.0593
 4800SOL    HW115841   5.016   0.375   0.836 -0.8787 -1.5129 -0.7104
 4800SOL    HW215842   5.142   0.295   0.819 -1.3872 -2.3777 -0.4623
 4801SOL     OW15843   1.979   3.091   1.174 -0.2215  0.3264  0.2892
 4801SOL    HW115844   1.886   3.102   1.154 -0.2264  0.1535  0.2196
 4801SOL    HW215845   2.002   3.171   1.221 -0.6463 -0.0507  1.1679
 4802SOL     OW15846   2.540   5.902   9.531  0.2835  0.1100  0.2095
 4802SOL    HW115847   2.546   5.969   9.463 -1.2086  0.5073  0.4362
 4802SOL    HW215848   2.527   5.952   9.612 -1.2773 -0.4465  0.3226
 4803SOL     OW15849   6.605   1.161   6.168  0.2742 -0.3858 -0.3288
 4803SOL    HW115850   6.652   1.234   6.128 -0.9424  1.3723  1.2716
 4803SOL    HW215851   6.537   1.202   6.221 -0.9687 -2.7305  0.0426
 4804SOL     OW15852   5.703   4.134   7.111 -1.0457 -0.2188  0.2327
 4804SOL    HW115853   5.741   4.100   7.192 -0.1085  0.8531  0.2709
 4804SOL    HW215854   5.720   4.228   7.114 -0.7523 -0.1850 -1.3267
 4805SOL     OW15855   2.450   7.949  12.406  0.2391  0.2713  0.0711
 4805SOL    HW115856   2.503   7.970  12.329  0.6772  2.1944  0.8391
 4805SOL    HW215857   2.512   7.946  12.479 -0.4903  1.1485  0.7565
 4806SOL     OW15858   6.623   6.366   4.403 -0.3282 -0.1050 -0.0980
 4806SOL    HW115859   6.533   6.362   4.433 -1.0601  0.7284 -2.0628
 4806SOL    HW215860   6.656   6.450   4.434  0.4121 -1.1467  2.1515
 4807SOL     OW15861   6.433   4.224   5.871 -0.6040  0.6261  0.2704
 4807SOL    HW115862   6.519   4.225   5.913 -0.7448  1.7478  0.5459
 4807SOL    HW215863   6.380   4.168   5.928 -0.2587  0.5272  0.5004
 4808SOL     OW15864   0.204   2.328  12.025  0.4383 -0.2992 -0.2115
 4808SOL    HW115865   0.255   2.408  12.010  0.0105  0.0185 -0.0111
 4808SOL    HW215866   0.267   2.257  12.013  1.1953  0.1130  1.0369
 4809SOL     OW15867   3.566   4.723   4.503  0.3261 -0.3918  0.9631
 4809SOL    HW115868   3.473   4.728   4.480  1.0870 -0.8183 -2.8968
 4809SOL    HW215869   3.600   4.810   4.486  0.9616 -0.7454  0.3395
 4810SOL     OW15870   2.436   0.176   1.035 -0.7802  0.3054 -0.1479
 4810SOL    HW115871   2.399   0.246   1.089 -0.9313 -0.2511  0.4794
 4810SOL    HW215872   2.493   0.222   0.973 -0.2752  0.9295  0.7506
 4811SOL     OW15873   0.639   4.730   2.086  0.0184  0.2092 -0.1147
 4811SOL    HW115874   0.664   4.692   2.169 -0.5418  1.1634  0.5153
 4811SOL    HW215875   0.711   4.788   2.063  1.0109 -1.3978 -1.2236
 4812SOL     OW15876   4.107   4.769  10.692 -0.1325  0.0329  0.9456
 4812SOL    HW115877   4.044   4.710  10.732  0.6277 -1.1494  0.4659
 4812SOL    HW215878   4.055   4.843  10.662 -1.2730 -0.8509  0.6818
 4813SOL     OW15879   0.650   1.274   9.036 -0.0381  0.2201  0.6011
 4813SOL    HW115880   0.599   1.295   9.114  1.2577 -0.9448  1.8244
 4813SOL    HW215881   0.741   1.287   9.062  0.5237 -1.7007 -0.1635
 4814SOL     OW15882   5.174   1.499   3.249 -0.3315  0.1779  0.1995
 4814SOL    HW115883   5.251   1.454   3.213 -0.6612  0.1942 -0.5479
 4814SOL    HW215884   5.131   1.434   3.303  0.5646  0.3650  1.1739
 4815SOL     OW15885   7.294   3.205   2.180 -0.1052  0.3911 -0.5930
 4815SOL    HW115886   7.209   3.218   2.138 -0.9888  1.3711  1.3656
 4815SOL    HW215887   7.321   3.118   2.151 -1.9120 -0.0732 -1.0445
 4816SOL     OW15888   5.599   7.044   2.859 -0.4924  0.0281  0.1630
 4816SOL    HW115889   5.676   7.096   2.837 -1.4002  1.1095 -0.5912
 4816SOL    HW215890   5.603   6.968   2.800  0.2156 -0.1392  0.4290
 4817SOL     OW15891   4.609   0.641  12.341 -0.2588 -0.2559  0.2472
 4817SOL    HW115892   4.541   0.705  12.365 -0.3021  0.4515 -1.6023
 4817SOL    HW215893   4.662   0.633  12.420 -0.5869  1.6610  0.7361
 4818SOL     OW15894   3.256   0.672  12.231  0.0808 -0.3378  0.1860
 4818SOL    HW115895   3.262   0.586  12.190 -2.6319 -0.6147  0.2319
 4818SOL    HW215896   3.347   0.695  12.251  1.0913 -2.0828 -2.0200
 4819SOL     OW15897   4.529   2.622   6.340 -0.0514 -0.5637 -0.1167
 4819SOL    HW115898   4.501   2.582   6.257 -1.3475 -1.2111  0.5944
 4819SOL    HW215899   4.462   2.689   6.357 -1.4960 -2.3800  1.8026
 4820SOL     OW15900   4.726   4.713   2.210  0.2085  0.0021  0.1832
 4820SOL    HW115901   4.777   4.782   2.168  0.2577  0.3566  0.7997
 4820SOL    HW215902   4.730   4.735   2.304  0.2739 -0.8666  0.3953
 4821SOL     OW15903   4.207   5.202   4.164  0.6678  0.0338  0.2240
 4821SOL    HW115904   4.289   5.204   4.115  0.5698  2.1009  0.0596
 4821SOL    HW215905   4.190   5.293   4.188 -1.7087 -0.2781  0.0370
 4822SOL     OW15906   5.902   6.892  12.433  0.3000 -0.2820  0.0206
 4822SOL    HW115907   5.843   6.839  12.486 -0.5661  1.4293  0.8303
 4822SOL    HW215908   5.980   6.902  12.487  0.8112 -1.3486 -0.4705
 4823SOL     OW15909   7.869   3.877   4.877 -0.1684  0.0707 -0.6099
 4823SOL    HW115910   7.881   3.954   4.821  1.9679  1.8805  2.0434
 4823SOL    HW215911   7.941   3.819   4.855  0.9865  1.0232  0.5174
 4824SOL     OW15912   0.968   2.578   2.100 -0.0742 -0.4805  0.3223
 4824SOL    HW115913   1.024   2.501   2.092 -0.5914 -0.6753 -1.9462
 4824SOL    HW215914   0.889   2.557   2.051 -0.1954  1.4917 -0.4379
 4825SOL     OW15915   4.092   6.884   0.923 -0.4004  0.2326  0.0471
 4825SOL    HW115916   4.061   6.796   0.946  2.2176 -0.8587 -0.2769
 4825SOL    HW215917   4.127   6.919   1.005 -0.7692  0.6844  0.0132
 4826SOL     OW15918   0.680   4.762   0.782  0.5419 -0.1689 -0.4777
 4826SOL    HW115919   0.641   4.773   0.695 -1.0520 -0.6811  0.1230
 4826SOL    HW215920   0.722   4.845   0.801  0.6634  0.0428 -1.6269
 4827SOL     OW15921   0.147   0.526   0.471  0.0306 -0.6121  0.2972
 4827SOL    HW115922   0.076   0.560   0.525 -1.2657 -1.3546 -0.8550
 4827SOL    HW215923   0.111   0.445   0.433  1.3280 -0.7622 -0.6640
 4828SOL     OW15924   6.789   6.089   3.856 -0.4869  0.0237  0.0279
 4828SOL    HW115925   6.743   6.041   3.787 -2.5388  0.2576  1.1583
 4828SOL    HW215926   6.882   6.075   3.838 -1.0001 -1.6915 -1.5078
 4829SOL     OW15927   0.934   2.978   6.229  0.3178 -0.1996 -0.8473
 4829SOL    HW115928   0.861   2.960   6.289 -0.6971  0.6690 -1.7798
 4829SOL    HW215929   0.892   3.000   6.146  1.4655  3.1996 -0.6928
 4830SOL     OW15930   7.446   2.151   3.799 -0.1114  0.1655  0.4664
 4830SOL    HW115931   7.476   2.237   3.829  0.9901  0.5432 -1.4616
 4830SOL    HW215932   7.440   2.161   3.704 -0.5790 -1.7157  0.2654
 4831SOL     OW15933   2.232   5.984   1.223  0.2064 -0.4168 -0.5683
 4831SOL    HW115934   2.241   5.889   1.229 -2.5454 -0.7599 -0.3457
 4831SOL    HW215935   2.166   5.998   1.155 -1.2140  1.1347  1.0044
 4832SOL     OW15936   4.935   2.613   6.457  0.6498  0.0590  0.0230
 4832SOL    HW115937   4.851   2.611   6.501  0.4304  0.8006 -0.3448
 4832SOL    HW215938   4.916   2.648   6.370  0.6525 -3.5339 -1.6181
 4833SOL     OW15939   3.920   4.168  10.142 -0.3054 -0.0968 -0.1020
 4833SOL    HW115940   3.929   4.176  10.047  0.3772  0.7033  0.0137
 4833SOL    HW215941   3.831   4.136  10.156 -0.5910  0.2932 -0.9890
 4834SOL     OW15942   0.792   7.777   0.434  0.0666  0.6446  0.0335
 4834SOL    HW115943   0.801   7.735   0.520 -0.0716 -0.8611 -0.6470
 4834SOL    HW215944   0.830   7.714   0.373 -0.6004  1.3092 -1.1017
 4835SOL     OW15945   2.374   2.044   3.298 -0.3846 -0.7336  0.0223
 4835SOL    HW115946   2.299   2.006   3.253  0.9598 -0.2591 -2.8289
 4835SOL    HW215947   2.450   2.007   3.254  1.0168  2.0561 -0.1222
 4836SOL     OW15948   4.119   4.164   7.933  0.1630  0.2195  0.1399
 4836SOL    HW115949   4.095   4.239   7.878  0.1229  1.0140  1.2173
 4836SOL    HW215950   4.086   4.088   7.885 -1.2404  1.0063 -0.1897
 4837SOL     OW15951   5.538   2.108   2.116 -0.7281  0.0705 -0.0849
 4837SOL    HW115952   5.549   2.183   2.174  2.6236 -1.0353  0.9566
 4837SOL    HW215953   5.495   2.143   2.039 -1.8166  2.4292  1.4830
 4838SOL     OW15954   3.518   2.067   8.120 -0.0916 -0.3237  0.5628
 4838SOL    HW115955   3.497   2.146   8.070 -0.6632 -0.7063  0.1835
 4838SOL    HW215956   3.433   2.034   8.148  0.2370  0.1929  2.2926
 4839SOL     OW15957   5.572   0.491   0.057  0.0939 -0.3485 -0.3666
 4839SOL    HW115958   5.619   0.460   0.134  0.3201  2.2766  0.6479
 4839SOL    HW215959   5.548   0.581   0.078 -1.6913 -0.2164 -2.5543
 4840SOL     OW15960   4.739   3.569   6.258 -0.4954 -0.5855 -0.0531
 4840SOL    HW115961   4.719   3.650   6.210  0.2785  0.0635  0.6801
 4840SOL    HW215962   4.701   3.499   6.204  0.2699  0.1114 -1.5842
 4841SOL     OW15963   4.465   3.046   8.898  0.0724  0.0433 -0.5181
 4841SOL    HW115964   4.436   3.105   8.967 -0.8532  0.8874 -1.5924
 4841SOL    HW215965   4.436   2.959   8.927 -1.0525  0.5022 -0.2445
 4842SOL     OW15966   0.423   7.001   8.981  0.2601 -0.0229  0.4688
 4842SOL    HW115967   0.484   7.065   8.946 -1.2675  1.1926 -0.1113
 4842SOL    HW215968   0.427   6.927   8.921  0.6412  0.3477  0.0363
 4843SOL     OW15969   7.022   0.735   8.990  0.5408  0.5449 -0.3434
 4843SOL    HW115970   7.106   0.764   9.026  0.2228 -0.0202  0.8882
 4843SOL    HW215971   7.046   0.682   8.913  1.2787  0.8700 -0.3434
 4844SOL     OW15972   4.277   5.562   1.849 -0.3353  0.1355  0.6636
 4844SOL    HW115973   4.331   5.530   1.922 -0.3799 -0.9266  0.2390
 4844SOL    HW215974   4.206   5.499   1.842 -0.0712 -0.0456 -0.6077
 4845SOL     OW15975   1.694   0.362   7.199 -0.0722  0.1156 -0.5629
 4845SOL    HW115976   1.638   0.345   7.123 -0.7448 -1.1559  0.1876
 4845SOL    HW215977   1.778   0.322   7.177 -0.2878 -0.3143 -0.6115
 4846SOL     OW15978   2.385   6.344  10.775  0.2924  0.2691 -0.4472
 4846SOL    HW115979   2.382   6.336  10.870  0.3087 -0.9603 -0.5354
 4846SOL    HW215980   2.295   6.361  10.749  0.3635  1.0895 -0.1845
 4847SOL     OW15981   1.336   4.154   5.554  0.2280  0.2243  0.1375
 4847SOL    HW115982   1.384   4.072   5.545  1.3299  0.8717 -0.1193
 4847SOL    HW215983   1.334   4.191   5.466 -0.4510  0.3811  0.2098
 4848SOL     OW15984   5.915   5.307  10.090 -0.4080  0.4252 -0.8166
 4848SOL    HW115985   6.006   5.285  10.072 -0.3796 -0.5546  0.4116
 4848SOL    HW215986   5.882   5.340  10.007  0.7812 -0.1632 -1.5538
 4849SOL     OW15987   4.910   7.708  10.074  0.3260  0.0760 -0.4602
 4849SOL    HW115988   4.926   7.778  10.011  2.0472 -0.2504 -0.4394
 4849SOL    HW215989   4.836   7.739  10.126 -0.7237  0.6315 -2.2041
 4850SOL     OW15990   3.382   6.482   9.751  0.1650 -0.1695  0.6183
 4850SOL    HW115991   3.423   6.553   9.801  0.0263 -0.8407  1.7252
 4850SOL    HW215992   3.440   6.407   9.764 -1.0624 -0.9824  1.7395
 4851SOL     OW15993   5.963   1.542   0.724  0.4069 -0.2246 -0.2266
 4851SOL    HW115994   5.941   1.473   0.786  1.5088  0.5495  1.1097
 4851SOL    HW215995   5.965   1.499   0.639 -1.2592 -1.3051  0.2339
 4852SOL     OW15996   3.546   4.058   6.679  0.3854  0.0202 -0.2515
 4852SOL    HW115997   3.471   4.020   6.724  0.2071  0.8135  0.1351
 4852SOL    HW215998   3.549   4.013   6.595 -0.8703  0.3814 -0.5105
 4853SOL     OW15999   4.767   6.506   9.761 -1.0565  0.2415  0.4129
 4853SOL    HW116000   4.786   6.600   9.768  0.8557 -0.1897  2.1195
 4853SOL    HW216001   4.806   6.479   9.678  1.4419  0.4172  1.4193
 4854SOL     OW16002   1.380   2.385   4.209 -0.2343 -0.4109 -0.4645
 4854SOL    HW116003   1.359   2.295   4.184  1.1138 -0.5198 -1.3190
 4854SOL    HW216004   1.476   2.389   4.204 -0.1637  0.6588  1.0229
 4855SOL     OW16005   3.638   6.978  11.025 -0.2593 -0.9746 -0.8674
 4855SOL    HW116006   3.563   6.919  11.022  0.1182 -1.5146 -0.0778
 4855SOL    HW216007   3.663   6.981  11.117 -0.6758  0.9641 -0.7814
 4856SOL     OW16008   5.677   5.737   6.876  0.7403  0.3264  0.2140
 4856SOL    HW116009   5.601   5.784   6.841 -0.4790 -1.2456  0.5869
 4856SOL    HW216010   5.706   5.790   6.950 -1.0575  0.1671  1.0900
 4857SOL     OW16011   3.558   2.694   5.859 -0.3736  0.1526 -0.4160
 4857SOL    HW116012   3.505   2.765   5.896  0.0316  0.8957 -1.2134
 4857SOL    HW216013   3.502   2.617   5.863 -0.1505  0.0305  2.2907
 4858SOL     OW16014   6.713   6.133   5.260 -0.0315  0.1318  0.0305
 4858SOL    HW116015   6.623   6.165   5.254  0.0127  0.9397  2.6472
 4858SOL    HW216016   6.754   6.161   5.179 -2.0439 -0.0588 -1.1268
 4859SOL     OW16017   5.906   1.982   3.508 -0.0289 -0.0750  0.3524
 4859SOL    HW116018   5.913   2.021   3.421  1.4857 -1.7717 -0.3485
 4859SOL    HW216019   5.954   2.042   3.566  0.2240  0.3131 -0.2569
 4860SOL     OW16020   7.175   7.654  11.467  0.3196 -0.0265 -0.4213
 4860SOL    HW116021   7.177   7.599  11.545 -3.4234  0.3866  0.1486
 4860SOL    HW216022   7.113   7.724  11.488  0.3251  0.9690 -3.2496
 4861SOL     OW16023   1.562   6.189  10.694 -0.0332 -0.3840 -0.2129
 4861SOL    HW116024   1.566   6.273  10.741 -0.0900 -1.1241  1.1884
 4861SOL    HW216025   1.522   6.129  10.757 -0.0735 -1.4520 -1.2255
 4862SOL     OW16026   7.920   6.372   9.425  0.2389  0.2090  0.6056
 4862SOL    HW116027   7.976   6.320   9.369  0.7043  0.9647  0.3511
 4862SOL    HW216028   7.952   6.355   9.514  0.1532 -0.2107  0.5571
 4863SOL     OW16029   0.577   5.355   2.575  0.0678  0.1264 -0.2074
 4863SOL    HW116030   0.666   5.350   2.542  0.3335  0.0001  0.5094
 4863SOL    HW216031   0.534   5.421   2.520  0.5045 -0.0434 -0.7580
 4864SOL     OW16032   6.222   1.061   9.355  0.1034 -0.2202  0.1785
 4864SOL    HW116033   6.273   1.139   9.378  0.2521 -0.7305  1.7206
 4864SOL    HW216034   6.132   1.082   9.381  0.1088 -0.4692  0.4144
 4865SOL     OW16035   6.314   1.049   8.856 -0.1147 -0.4455 -0.4490
 4865SOL    HW116036   6.381   1.080   8.796 -0.5035  1.4187 -0.0032
 4865SOL    HW216037   6.324   1.104   8.934 -1.1830 -1.1518  0.2209
 4866SOL     OW16038   7.363   1.606   3.636 -0.0964 -0.2243  0.0654
 4866SOL    HW116039   7.321   1.673   3.583  0.0574  0.3481  0.6538
 4866SOL    HW216040   7.300   1.587   3.706  0.8710  1.1739  1.3848
 4867SOL     OW16041   6.234   5.421   6.298  0.1876 -0.2989 -0.0510
 4867SOL    HW116042   6.182   5.470   6.235  0.8148  1.8893  1.0297
 4867SOL    HW216043   6.291   5.366   6.245 -2.4638 -2.0883 -1.2737
 4868SOL     OW16044   0.332   4.187  11.643  0.1194 -0.0937  0.0439
 4868SOL    HW116045   0.393   4.144  11.703 -1.3727 -2.7074 -0.1859
 4868SOL    HW216046   0.366   4.168  11.556  0.3515  0.6571 -0.0367
 4869SOL     OW16047   3.207   0.782   6.116  0.3492  0.2463 -0.6691
 4869SOL    HW116048   3.163   0.862   6.148  0.6027 -0.2976  1.1352
 4869SOL    HW216049   3.286   0.776   6.169 -0.8417 -2.4865  0.9892
 4870SOL     OW16050   1.809   0.434  11.962  0.1906 -0.2664  0.5339
 4870SOL    HW116051   1.740   0.494  11.935 -1.2960 -0.9216  2.5995
 4870SOL    HW216052   1.806   0.364  11.896  1.0313  1.1948 -1.1252
 4871SOL     OW16053   5.212   5.599   9.170  0.0226  0.0128  0.1531
 4871SOL    HW116054   5.157   5.676   9.152 -1.2091 -1.0967 -1.0759
 4871SOL    HW216055   5.187   5.536   9.103  0.4332 -1.7626  1.5839
 4872SOL     OW16056   4.645   5.217   2.904 -0.4833  0.0275  0.2205
 4872SOL    HW116057   4.729   5.195   2.945  0.2790  0.9847 -0.7307
 4872SOL    HW216058   4.661   5.303   2.864 -1.5980 -0.2606 -0.8849
 4873SOL     OW16059   6.393   5.547   9.211 -0.2876 -0.6955  0.3086
 4873SOL    HW116060   6.427   5.493   9.282  0.0483 -1.1021 -0.1546
 4873SOL    HW216061   6.374   5.485   9.140  0.3465 -0.1898 -0.3214
 4874SOL     OW16062   7.770   5.269   3.005 -0.0167  0.1424 -0.2313
 4874SOL    HW116063   7.837   5.299   3.067  1.0008 -0.3624 -1.0681
 4874SOL    HW216064   7.796   5.180   2.982  0.5126  0.8314 -2.5466
 4875SOL     OW16065   1.244   3.741   6.205  0.2123 -0.2407  0.4201
 4875SOL    HW116066   1.197   3.782   6.277  0.7630  1.9119 -0.3841
 4875SOL    HW216067   1.175   3.706   6.148 -0.2743 -0.1519  0.9444
 4876SOL     OW16068   3.481   6.312   8.166  0.1448 -0.0498  0.0346
 4876SOL    HW116069   3.430   6.259   8.106  2.2276 -0.6407 -1.3297
 4876SOL    HW216070   3.490   6.397   8.122 -2.6521  1.3739  1.9273
 4877SOL     OW16071   2.040   5.413   6.460 -0.2983  0.4510  0.1620
 4877SOL    HW116072   2.065   5.329   6.499 -0.5910 -0.0380 -0.6843
 4877SOL    HW216073   2.086   5.478   6.513  0.1095 -0.2533  0.6935
 4878SOL     OW16074   5.651   3.080   1.704  0.3680 -0.7107  0.4204
 4878SOL    HW116075   5.639   2.986   1.688 -1.3278 -0.1128 -2.4911
 4878SOL    HW216076   5.578   3.104   1.761  0.1872 -0.9658  0.2998
 4879SOL     OW16077   3.460   6.766  11.071  0.3335 -0.6183 -0.3825
 4879SOL    HW116078   3.406   6.764  10.991 -0.8876 -1.4578  0.4246
 4879SOL    HW216079   3.480   6.674  11.089  1.1926 -0.3861 -0.0918
 4880SOL     OW16080   6.268   3.192   2.752  0.0931  0.5542  0.6436
 4880SOL    HW116081   6.310   3.178   2.668 -2.2317  0.2915 -0.5553
 4880SOL    HW216082   6.338   3.223   2.810  1.9960 -0.4674 -1.0215
 4881SOL     OW16083   5.824   5.952   4.900  0.2213 -0.0313 -0.1803
 4881SOL    HW116084   5.783   5.866   4.896 -0.2921  0.1586  0.6798
 4881SOL    HW216085   5.755   6.009   4.934  0.3692  0.8392 -1.2868
 4882SOL     OW16086   0.126   3.307   2.245  0.6032  0.2645 -0.4184
 4882SOL    HW116087   0.072   3.353   2.180  0.4389  0.8117  0.0909
 4882SOL    HW216088   0.214   3.343   2.233  0.9818 -0.9517 -1.5528
 4883SOL     OW16089   6.045   4.895   9.671 -0.0579 -0.0239 -0.1658
 4883SOL    HW116090   6.125   4.863   9.712 -0.5032 -0.3513  0.4529
 4883SOL    HW216091   6.017   4.823   9.614 -0.6089 -0.4281  0.5994
 4884SOL     OW16092   3.973   6.371   0.370 -0.2783 -0.3501  0.0744
 4884SOL    HW116093   4.034   6.442   0.351 -0.8694 -0.2571 -1.5756
 4884SOL    HW216094   3.922   6.403   0.445  1.1211 -0.1073  0.9665
 4885SOL     OW16095   3.103   7.300   4.701 -0.3509 -0.5261  0.0787
 4885SOL    HW116096   3.103   7.334   4.791 -0.0405  0.1088 -0.1487
 4885SOL    HW216097   3.079   7.208   4.710  0.8944 -0.7953  0.9429
 4886SOL     OW16098   5.480   2.629   8.342 -0.0173 -0.2164  0.4333
 4886SOL    HW116099   5.537   2.682   8.286  0.8092 -0.3339  1.1503
 4886SOL    HW216100   5.421   2.586   8.280 -0.6095  1.3888 -0.1737
 4887SOL     OW16101   1.117   7.856   9.052  1.0079  0.3487 -0.2319
 4887SOL    HW116102   1.130   7.761   9.055  3.3394  0.6110 -0.5179
 4887SOL    HW216103   1.095   7.881   9.142  0.8550 -0.3909 -0.0592
 4888SOL     OW16104   2.818   0.740   6.990  0.3585  0.0092  0.5303
 4888SOL    HW116105   2.855   0.660   6.951  0.8914 -0.0211  1.0974
 4888SOL    HW216106   2.764   0.708   7.063 -0.3888  0.0915  0.0319
 4889SOL     OW16107   0.389   5.805   7.881  0.1007  0.2576 -0.0355
 4889SOL    HW116108   0.475   5.829   7.847  1.1379 -2.2728  0.6392
 4889SOL    HW216109   0.404   5.783   7.972 -1.5294  0.9620  0.4460
 4890SOL     OW16110   1.404   2.187   7.936 -0.4598  0.0015 -0.4216
 4890SOL    HW116111   1.488   2.180   7.982 -0.9023 -1.0214  0.2465
 4890SOL    HW216112   1.402   2.278   7.905 -0.0046  0.6585  1.3245
 4891SOL     OW16113   2.005   7.232   0.293  0.1004 -0.6377  0.0766
 4891SOL    HW116114   2.087   7.203   0.252 -0.2759 -0.2386 -0.9986
 4891SOL    HW216115   2.032   7.268   0.377  1.0590 -0.3743 -0.3276
 4892SOL     OW16116   6.957   1.710   3.895  0.1256  0.1931  0.1060
 4892SOL    HW116117   6.960   1.755   3.811  1.8857  0.0311  0.0408
 4892SOL    HW216118   6.875   1.739   3.935 -0.0800  1.3339 -1.0754
 4893SOL     OW16119   5.325   1.784   1.674  0.3106  0.4607  0.5095
 4893SOL    HW116120   5.336   1.768   1.580  1.3016  0.6047  0.5911
 4893SOL    HW216121   5.299   1.699   1.710 -0.1197  0.4158  0.1005
 4894SOL     OW16122   6.572   4.635  11.015 -0.0994  0.1215 -0.3696
 4894SOL    HW116123   6.588   4.726  11.042 -0.8384  0.2030 -0.1852
 4894SOL    HW216124   6.489   4.612  11.057  0.8537 -1.1812  0.9036
 4895SOL     OW16125   3.815   1.612   8.287  0.1269  0.1563  0.5660
 4895SOL    HW116126   3.816   1.694   8.335  0.1579  0.2443  0.4138
 4895SOL    HW216127   3.876   1.555   8.335  1.0586  0.6281 -0.0520
 4896SOL     OW16128   0.514   2.271   2.874  0.0612 -0.0889 -0.3621
 4896SOL    HW116129   0.496   2.334   2.804  1.7633 -0.2358 -0.9739
 4896SOL    HW216130   0.609   2.259   2.872 -0.0093 -1.1621  1.0697
 4897SOL     OW16131   0.975   7.380  11.070  0.6229  0.3282 -0.5473
 4897SOL    HW116132   0.972   7.322  10.993 -0.7150  0.8160 -0.8732
 4897SOL    HW216133   1.061   7.361  11.109  1.0471 -0.4285 -1.7613
 4898SOL     OW16134   5.834   2.661   4.061 -1.3654 -0.3267 -0.0650
 4898SOL    HW116135   5.852   2.627   4.149  0.8024  0.2721 -0.1995
 4898SOL    HW216136   5.742   2.686   4.063 -1.7351 -1.6124  1.5813
 4899SOL     OW16137   2.920   7.390  11.613  0.3932 -0.2746  0.0629
 4899SOL    HW116138   2.848   7.329  11.600 -0.6620  1.0578 -0.6297
 4899SOL    HW216139   2.942   7.420  11.525 -1.4013  2.8120  0.4956
 4900SOL     OW16140   1.268   3.569   4.274  0.0749 -0.4823  0.1322
 4900SOL    HW116141   1.289   3.479   4.298  0.9773 -0.8812 -1.9090
 4900SOL    HW216142   1.174   3.568   4.255 -0.2098 -0.6303  1.5143
 4901SOL     OW16143   1.223   1.998  10.393  0.3093 -0.2277  0.3564
 4901SOL    HW116144   1.247   1.946  10.469  0.5840  0.9430  1.1008
 4901SOL    HW216145   1.303   2.002  10.340 -0.4566 -2.8733 -1.1630
 4902SOL     OW16146   0.871   0.546   9.182  0.4738 -0.4983  0.0315
 4902SOL    HW116147   0.831   0.618   9.133  1.1741 -0.0176  0.1525
 4902SOL    HW216148   0.851   0.566   9.274  1.4155  0.0346  0.1386
 4903SOL     OW16149   2.024   5.183   8.125 -0.1231  0.3252  0.3121
 4903SOL    HW116150   2.035   5.091   8.105  1.6348  0.5686  0.0163
 4903SOL    HW216151   1.933   5.191   8.152 -0.0615 -1.6634  1.2811
 4904SOL     OW16152   5.458   4.743   1.730  0.2370 -0.1894  0.1163
 4904SOL    HW116153   5.395   4.674   1.750  1.8130 -1.8218 -0.1847
 4904SOL    HW216154   5.519   4.742   1.804  0.3510  0.8047  0.0437
 4905SOL     OW16155   4.492   2.129   7.966  0.0618 -0.3665 -0.6538
 4905SOL    HW116156   4.531   2.216   7.980 -0.8976  0.2050 -1.3775
 4905SOL    HW216157   4.539   2.072   8.026 -0.5068  1.0001  1.1976
 4906SOL     OW16158   1.248   3.365   6.235  0.0578 -0.2965 -0.1394
 4906SOL    HW116159   1.210   3.311   6.166  0.3140 -1.2411  0.4329
 4906SOL    HW216160   1.173   3.413   6.271 -0.4274 -1.2599  0.1976
 4907SOL     OW16161   1.149   5.847  11.977  0.1229  0.2066 -0.0036
 4907SOL    HW116162   1.208   5.917  11.950  0.8723 -0.7821 -1.0508
 4907SOL    HW216163   1.063   5.889  11.984  0.3727  1.0548 -1.5555
 4908SOL     OW16164   7.687   5.106   1.365 -0.3188 -0.3037  1.0430
 4908SOL    HW116165   7.688   5.192   1.407  0.7724 -1.5483  3.8170
 4908SOL    HW216166   7.761   5.108   1.304 -1.0361  1.0792  0.1781
 4909SOL     OW16167   7.402   1.043  11.862 -0.7311  0.2306 -0.0943
 4909SOL    HW116168   7.496   1.029  11.871 -0.8244  0.7504  2.4353
 4909SOL    HW216169   7.362   0.989  11.930 -2.0709  1.8559  0.4831
 4910SOL     OW16170   5.898   0.911   9.357  0.1051 -0.4361 -0.0663
 4910SOL    HW116171   5.891   0.856   9.435 -0.1605  1.0728  1.0332
 4910SOL    HW216172   5.922   0.997   9.391 -3.2151  1.1448 -1.2464
 4911SOL     OW16173   6.252   1.177   5.399 -0.1003 -0.2135  0.4039
 4911SOL    HW116174   6.216   1.207   5.482 -3.1565 -0.9900 -0.5051
 4911SOL    HW216175   6.188   1.205   5.334  1.5951 -0.6805 -1.5640
 4912SOL     OW16176   4.251   2.618   9.148 -0.1999  0.6452 -0.1775
 4912SOL    HW116177   4.259   2.537   9.198 -0.4563  0.4841 -0.3968
 4912SOL    HW216178   4.259   2.687   9.214 -0.9015  0.4310  0.1441
 4913SOL     OW16179   2.831   6.012   7.033 -0.1948 -0.3145  0.2348
 4913SOL    HW116180   2.920   6.044   7.016 -0.6841  1.2583  0.4085
 4913SOL    HW216181   2.809   5.961   6.955  0.1379  1.0009 -0.7633
 4914SOL     OW16182   4.537   1.168  11.132 -0.2428 -0.2494 -0.4739
 4914SOL    HW116183   4.494   1.082  11.132  0.6832 -0.7241 -0.8773
 4914SOL    HW216184   4.623   1.152  11.095  1.0975  0.3045  2.1580
 4915SOL     OW16185   6.375   2.842  11.781 -0.7635 -0.2692 -0.0660
 4915SOL    HW116186   6.333   2.758  11.800 -0.8558 -0.2922 -0.3721
 4915SOL    HW216187   6.422   2.864  11.861  0.1713 -1.1481 -0.3621
 4916SOL     OW16188   4.807   3.612   7.309 -0.1605  0.3854  0.2228
 4916SOL    HW116189   4.900   3.589   7.316  0.1654  1.6664  0.4423
 4916SOL    HW216190   4.789   3.663   7.388 -0.3582  2.2843 -0.9703
 4917SOL     OW16191   5.609   7.430   7.250 -0.2915  0.0191 -0.6266
 4917SOL    HW116192   5.575   7.443   7.162 -1.9385 -1.5652 -0.2861
 4917SOL    HW216193   5.550   7.480   7.307  0.1058  0.1433 -0.3128
 4918SOL     OW16194   2.525   4.087   9.263 -0.2404  0.1093  0.3324
 4918SOL    HW116195   2.592   4.144   9.300 -0.6336 -0.7941  2.5476
 4918SOL    HW216196   2.444   4.114   9.307 -0.9808 -0.1920 -0.8007
 4919SOL     OW16197   3.862   4.939   6.357 -0.1597  0.4628  0.2877
 4919SOL    HW116198   3.899   4.891   6.431 -2.3084  0.7131  1.6364
 4919SOL    HW216199   3.804   5.004   6.397 -1.6177  0.4253 -1.6002
 4920SOL     OW16200   1.375   1.924   2.433 -0.1196  0.2498  0.1543
 4920SOL    HW116201   1.432   1.962   2.366 -0.5863  0.0774 -0.3493
 4920SOL    HW216202   1.395   1.973   2.513  0.9902 -0.0501  0.0766
 4921SOL     OW16203   5.919   0.289  10.608 -0.2451  0.7766 -0.0241
 4921SOL    HW116204   5.992   0.250  10.657  0.0368  0.6536 -0.5236
 4921SOL    HW216205   5.861   0.216  10.588 -0.5991  0.9033  0.5238
 4922SOL     OW16206   0.813   5.996  11.187 -0.1893 -0.1015  0.0538
 4922SOL    HW116207   0.864   5.990  11.268 -0.9006 -2.5789  0.4112
 4922SOL    HW216208   0.770   6.081  11.191  1.9860  1.0201  0.8908
 4923SOL     OW16209   3.539   1.103   2.712 -0.0717  0.0659  0.0635
 4923SOL    HW116210   3.449   1.131   2.695  0.3901  1.5423 -0.1200
 4923SOL    HW216211   3.574   1.172   2.769  0.6898 -0.9293  0.8213
 4924SOL     OW16212   3.201   1.853   8.608 -0.5077 -0.0042 -0.0419
 4924SOL    HW116213   3.219   1.822   8.697  0.0674  0.1982 -0.0844
 4924SOL    HW216214   3.226   1.780   8.551 -0.9776 -0.1740 -0.0351
 4925SOL     OW16215   0.675   4.351   9.183  0.2044 -0.2183  0.4470
 4925SOL    HW116216   0.633   4.293   9.247 -1.0964 -0.6805 -0.7812
 4925SOL    HW216217   0.758   4.375   9.225 -0.1362 -1.3186  1.8682
 4926SOL     OW16218   2.479   4.345   8.802  0.7980 -0.1449 -0.0533
 4926SOL    HW116219   2.479   4.424   8.856 -0.5024 -0.7137  0.8450
 4926SOL    HW216220   2.520   4.372   8.720  1.0368  1.2603  0.4928
 4927SOL     OW16221   4.036   1.259   9.835  0.0557  0.3792  0.7818
 4927SOL    HW116222   4.105   1.194   9.821  0.2795  0.2604  2.3002
 4927SOL    HW216223   4.081   1.343   9.832  0.1199  0.3493  0.9023
 4928SOL     OW16224   1.764   6.491   9.537  0.5965 -0.2438 -0.2252
 4928SOL    HW116225   1.736   6.492   9.629 -1.0728 -0.8611 -0.6945
 4928SOL    HW216226   1.717   6.564   9.497 -0.7355 -1.5202 -1.1079
 4929SOL     OW16227   5.143   1.158   3.946 -0.3980  0.2810 -0.2980
 4929SOL    HW116228   5.062   1.205   3.964 -0.5332  0.2288 -0.7627
 4929SOL    HW216229   5.199   1.178   4.021 -1.4179 -1.0096  0.8804
 4930SOL     OW16230   1.712   6.434   9.798 -0.1696  0.5661  0.3209
 4930SOL    HW116231   1.804   6.411   9.783 -0.3768 -0.3556  0.4310
 4930SOL    HW216232   1.699   6.422   9.892  0.4209  3.8092  0.9275
 4931SOL     OW16233   0.460   3.845   3.569 -0.1442 -0.3649 -0.4598
 4931SOL    HW116234   0.480   3.755   3.593  0.4509 -0.2631 -0.5508
 4931SOL    HW216235   0.373   3.842   3.530 -0.4860 -0.7675  0.3262
 4932SOL     OW16236   4.739   3.084  12.140 -0.3620  0.5411  0.3919
 4932SOL    HW116237   4.745   3.057  12.231  3.1651  0.4530  0.2819
 4932SOL    HW216238   4.699   3.010  12.096  0.3933 -0.5762  1.5132
 4933SOL     OW16239   7.572   6.005   0.518 -0.3649  0.2266  0.1530
 4933SOL    HW116240   7.570   6.040   0.607 -0.7944  0.8736 -0.1083
 4933SOL    HW216241   7.663   6.014   0.490 -0.3132  0.4038  0.3767
 4934SOL     OW16242   0.986   5.306   8.161  0.1973  0.6409  0.0433
 4934SOL    HW116243   0.891   5.311   8.170  0.2498  2.1410 -0.0148
 4934SOL    HW216244   1.012   5.393   8.133  1.3891 -0.2891 -2.0007
 4935SOL     OW16245   0.899   6.374  11.863 -0.4664  0.3954  0.3859
 4935SOL    HW116246   0.904   6.303  11.799  0.7368  0.6346  0.1794
 4935SOL    HW216247   0.908   6.454  11.811 -0.0977  0.6159  0.7802
 4936SOL     OW16248   3.965   0.846   7.643  0.1789  0.0981  0.1164
 4936SOL    HW116249   3.986   0.773   7.702 -0.7847  1.2227  1.9595
 4936SOL    HW216250   3.983   0.924   7.695 -1.6077  1.1380 -0.7248
 4937SOL     OW16251   6.341   6.271   8.761 -0.0403 -0.1590  0.2865
 4937SOL    HW116252   6.339   6.363   8.734  2.2847  0.1706  0.9827
 4937SOL    HW216253   6.309   6.273   8.851  0.1244 -0.0005  0.3442
 4938SOL     OW16254   1.988   5.729   6.972  0.4037 -0.1235 -0.6502
 4938SOL    HW116255   1.920   5.737   7.039  0.5968  1.0190 -0.5719
 4938SOL    HW216256   2.068   5.710   7.022  0.2620 -0.8526 -0.6927
 4939SOL     OW16257   1.490   4.992  10.474  0.2561  0.3499 -0.2458
 4939SOL    HW116258   1.572   5.042  10.482  0.5924 -0.3015  0.5219
 4939SOL    HW216259   1.422   5.053  10.501  0.9361 -0.4349  3.8307
 4940SOL     OW16260   6.414   7.546  10.861 -0.3799  0.7318 -0.5823
 4940SOL    HW116261   6.399   7.639  10.844 -1.4066  0.8239  0.6231
 4940SOL    HW216262   6.470   7.544  10.939  0.6561  0.3209 -1.3050
 4941SOL     OW16263   3.867   5.476   2.589  0.1970  0.0654  0.3498
 4941SOL    HW116264   3.784   5.469   2.544  0.8718 -0.6148 -0.8338
 4941SOL    HW216265   3.906   5.389   2.584  0.4673  0.0447  1.9650
 4942SOL     OW16266   6.138   5.790   0.097  0.0785  0.2383  0.4000
 4942SOL    HW116267   6.055   5.822   0.133 -1.2380  1.7261 -3.4585
 4942SOL    HW216268   6.129   5.695   0.096 -1.9946  0.3845 -0.5841
 4943SOL     OW16269   2.430   7.692   8.302  0.1597 -0.6845 -0.2235
 4943SOL    HW116270   2.390   7.618   8.258  0.2947 -1.6795  1.2619
 4943SOL    HW216271   2.520   7.694   8.268  0.3400 -1.5897  0.1750
 4944SOL     OW16272   4.816   6.891   2.973 -0.0047 -0.0757 -0.2827
 4944SOL    HW116273   4.885   6.912   2.910 -1.6373  0.8689 -1.8610
 4944SOL    HW216274   4.739   6.938   2.941 -1.3342 -0.8835  1.5380
 4945SOL     OW16275   6.357   0.009   4.528  0.1707  0.0848  0.2369
 4945SOL    HW116276   6.385   0.099   4.547  4.0748 -0.5298 -1.5864
 4945SOL    HW216277   6.399  -0.044   4.595 -0.8367 -0.5797  0.3696
 4946SOL     OW16278   3.509   7.687   0.723  0.3730 -0.0455  0.0384
 4946SOL    HW116279   3.541   7.677   0.813  1.2465 -0.3733 -0.3029
 4946SOL    HW216280   3.418   7.717   0.733  0.4464 -0.1316  1.0263
 4947SOL     OW16281   5.940   3.880   8.511  0.1248 -0.1871 -0.1304
 4947SOL    HW116282   5.995   3.810   8.476 -2.2117 -1.4632 -1.5168
 4947SOL    HW216283   5.944   3.948   8.443 -0.6944 -0.6698 -0.6758
 4948SOL     OW16284   0.057   6.306   8.377 -0.5573  0.4089  0.0710
 4948SOL    HW116285   0.012   6.263   8.449  0.9376  2.7467  2.6035
 4948SOL    HW216286   0.144   6.328   8.411  0.8462  0.2283 -3.0203
 4949SOL     OW16287   3.410   5.367  12.032  0.2693  0.2444 -0.2754
 4949SOL    HW116288   3.436   5.369  12.124 -1.9951  0.4811  0.4174
 4949SOL    HW216289   3.479   5.315  11.989  1.0223 -0.4525  1.6508
 4950SOL     OW16290   5.875   6.861   0.540 -0.6067 -0.3169 -0.3230
 4950SOL    HW116291   5.859   6.920   0.465 -0.0091  1.9566  1.2291
 4950SOL    HW216292   5.896   6.920   0.612 -0.7374 -2.4624  1.5610
 4951SOL     OW16293   4.821   6.881  11.240 -0.1659 -0.0911 -0.2644
 4951SOL    HW116294   4.729   6.895  11.258 -0.3320  0.7814 -1.6886
 4951SOL    HW216295   4.850   6.821  11.309 -1.9528 -0.9623 -0.2180
 4952SOL     OW16296   7.481   3.507   6.056 -0.3189  0.1415 -0.0078
 4952SOL    HW116297   7.424   3.519   5.980  0.1909  0.8999 -0.2818
 4952SOL    HW216298   7.428   3.459   6.119 -1.1602  0.5803 -0.3740
 4953SOL     OW16299   6.490   6.877   2.433 -0.1347  0.8109  0.1937
 4953SOL    HW116300   6.575   6.885   2.476 -0.6779 -0.0411  1.4582
 4953SOL    HW216301   6.510   6.849   2.344  0.8694 -0.2907  0.7502
 4954SOL     OW16302   5.763   7.315   6.598 -0.8927  0.1154 -0.4045
 4954SOL    HW116303   5.852   7.302   6.629 -1.6955 -0.7594  1.7650
 4954SOL    HW216304   5.756   7.261   6.520  0.0101 -1.1977  0.3805
 4955SOL     OW16305   5.329   4.051   2.465  0.3678 -0.2398 -0.1253
 4955SOL    HW116306   5.384   4.104   2.408 -0.1172 -0.7759 -1.1081
 4955SOL    HW216307   5.349   3.960   2.441  0.6608 -0.4922  1.0311
 4956SOL     OW16308   4.478   7.031   7.510 -0.5462 -0.1578  0.0089
 4956SOL    HW116309   4.436   6.969   7.449  0.0310 -0.0221 -0.5294
 4956SOL    HW216310   4.468   6.989   7.596 -0.8657 -0.6223 -0.2461
 4957SOL     OW16311   5.736   0.843   5.287 -0.0535 -0.6124 -0.3128
 4957SOL    HW116312   5.676   0.881   5.222  0.9400  0.0752 -0.8444
 4957SOL    HW216313   5.774   0.919   5.331  0.1165 -1.0570  0.3125
 4958SOL     OW16314   4.982   7.503   7.769  0.1049  0.2252  0.5057
 4958SOL    HW116315   4.907   7.444   7.763  0.8615 -0.7273  0.2421
 4958SOL    HW216316   5.044   7.471   7.703  0.0447  2.0470 -0.5138
 4959SOL     OW16317   3.643   2.571   5.505  0.2354 -0.6449 -0.4243
 4959SOL    HW116318   3.644   2.509   5.432 -1.2280 -0.0801 -0.9753
 4959SOL    HW216319   3.550   2.583   5.524  0.5280  0.6782  0.2584
 4960SOL     OW16320   5.009   6.939  11.060 -0.3445  0.2902 -0.3017
 4960SOL    HW116321   4.969   7.016  11.020  0.8031  1.4775  0.7332
 4960SOL    HW216322   4.951   6.916  11.133 -0.2299  0.7390 -0.0673
 4961SOL     OW16323   6.533   0.526   4.767 -0.5995  0.4554 -0.5750
 4961SOL    HW116324   6.523   0.567   4.681  0.9646  0.1225 -0.9395
 4961SOL    HW216325   6.626   0.536   4.788 -0.9375  0.4827  1.0641
 4962SOL     OW16326   3.491   1.969   9.281  0.3800  0.3642  0.4827
 4962SOL    HW116327   3.515   2.051   9.324  1.0781  0.7586 -0.6001
 4962SOL    HW216328   3.573   1.939   9.240 -0.0196 -0.5303  0.3068
 4963SOL     OW16329   7.779   3.716  11.097  0.6757  0.5106  0.0640
 4963SOL    HW116330   7.779   3.772  11.020  1.5921 -0.2769 -0.5287
 4963SOL    HW216331   7.850   3.654  11.082  0.1816 -0.3290  1.0556
 4964SOL     OW16332   0.272   7.707   4.584  0.1035 -0.0680 -0.0481
 4964SOL    HW116333   0.282   7.752   4.501 -3.1794  0.7632 -0.1209
 4964SOL    HW216334   0.236   7.621   4.561  0.9597 -0.5723  0.4350
 4965SOL     OW16335   3.215   2.855  10.759 -0.2291 -0.1340  0.1678
 4965SOL    HW116336   3.134   2.859  10.708 -0.7303 -1.7422  0.7808
 4965SOL    HW216337   3.242   2.764  10.753  2.0284  0.5435 -0.7327
 4966SOL     OW16338   1.809   6.889   6.029  0.1179  0.2516 -0.5413
 4966SOL    HW116339   1.757   6.968   6.047 -1.0401 -0.5985 -0.0141
 4966SOL    HW216340   1.863   6.913   5.954 -3.1404  0.2913 -3.0881
 4967SOL     OW16341   3.676   2.210  10.209  0.5191 -0.3960  0.7330
 4967SOL    HW116342   3.617   2.274  10.169  1.7976  0.8666  0.7626
 4967SOL    HW216343   3.632   2.185  10.290 -0.3303 -0.0834  0.3852
 4968SOL     OW16344   1.226   1.885   5.764  0.0518  0.2258 -0.3110
 4968SOL    HW116345   1.313   1.885   5.805  0.4164 -1.3026 -1.0217
 4968SOL    HW216346   1.236   1.831   5.686 -1.1412  1.3937 -1.3283
 4969SOL     OW16347   1.298   0.224   8.234 -0.2857 -0.1844  0.2278
 4969SOL    HW116348   1.356   0.299   8.223  0.7164 -1.1262 -1.4533
 4969SOL    HW216349   1.312   0.172   8.155 -1.5314 -1.7503  0.9832
 4970SOL     OW16350   3.076   3.239   4.094 -0.0477 -0.8938 -0.2380
 4970SOL    HW116351   3.086   3.334   4.081  1.7771 -0.8392  1.1212
 4970SOL    HW216352   3.022   3.231   4.172 -0.7068 -1.0145 -0.6929
 4971SOL     OW16353   2.471   3.089   2.616  0.5603 -0.5297  0.1812
 4971SOL    HW116354   2.408   3.150   2.654 -0.3174 -0.6815 -0.9433
 4971SOL    HW216355   2.437   3.002   2.640 -0.1769 -0.6357 -1.1444
 4972SOL     OW16356   6.001   0.356  11.756  0.3675  0.1607  0.0091
 4972SOL    HW116357   6.091   0.324  11.761  0.1203 -0.6845 -0.6757
 4972SOL    HW216358   5.958   0.321  11.834  0.3851 -0.2853 -0.1750
 4973SOL     OW16359   5.226   1.147   5.098  0.1038  0.0434  0.5684
 4973SOL    HW116360   5.166   1.169   5.026 -0.1487  0.8424  1.0071
 4973SOL    HW216361   5.281   1.225   5.107 -0.6193  0.4264  1.9895
 4974SOL     OW16362   2.289   0.227  10.342 -0.0614 -0.0527  0.4737
 4974SOL    HW116363   2.243   0.296  10.389 -0.2540  0.5133 -0.5346
 4974SOL    HW216364   2.255   0.230  10.253  0.0986 -1.2896  0.3432
 4975SOL     OW16365   2.846   3.574  10.952 -0.0770  0.1947 -0.1173
 4975SOL    HW116366   2.754   3.580  10.926 -0.0323 -0.1528 -0.3624
 4975SOL    HW216367   2.853   3.490  10.997  0.1054  0.2550 -0.0320
 4976SOL     OW16368   1.616   7.824  11.842 -0.1540  0.1722 -0.2099
 4976SOL    HW116369   1.701   7.787  11.819 -0.2360 -1.0951  1.4073
 4976SOL    HW216370   1.593   7.783  11.925 -1.1297  2.4952  0.7568
 4977SOL     OW16371   3.045   3.396  11.297  0.5393  0.1929 -0.3206
 4977SOL    HW116372   3.085   3.311  11.276  1.5951  0.6456 -0.1897
 4977SOL    HW216373   2.974   3.405  11.234 -0.2001 -1.2118  0.2525
 4978SOL     OW16374   0.933   6.691   5.020 -0.0961 -0.2805 -0.5136
 4978SOL    HW116375   0.886   6.661   5.099 -0.5615 -0.8688 -1.0006
 4978SOL    HW216376   0.915   6.623   4.955 -1.4501  1.1886 -1.7677
 4979SOL     OW16377   6.170   0.187   7.897 -0.4893  0.0988 -0.0409
 4979SOL    HW116378   6.194   0.263   7.951  3.1264 -1.3475  0.7253
 4979SOL    HW216379   6.170   0.114   7.958  1.7545 -1.2918 -1.5644
 4980SOL     OW16380   6.058   5.121   3.073  0.5291  0.1672 -0.0577
 4980SOL    HW116381   6.083   5.188   3.009 -0.4763 -0.2949 -0.9713
 4980SOL    HW216382   5.964   5.134   3.085  0.2692 -1.1844 -0.4076
 4981SOL     OW16383   0.048   2.611   8.522  0.3926  0.0315  0.3759
 4981SOL    HW116384  -0.024   2.615   8.459  1.1345  0.5079 -0.4666
 4981SOL    HW216385   0.117   2.563   8.476  0.2368 -1.4027  1.5835
 4982SOL     OW16386   2.949   0.477   0.977  0.0656  0.4761  0.9319
 4982SOL    HW116387   2.993   0.469   1.062 -1.9009  0.0564  1.9610
 4982SOL    HW216388   2.872   0.420   0.984  0.5878 -0.7111 -1.6722
 4983SOL     OW16389   1.719   6.083   9.970  0.3571 -0.3102  1.4262
 4983SOL    HW116390   1.631   6.113   9.990  0.6457  1.9327 -0.2463
 4983SOL    HW216391   1.709   6.030   9.891  0.7114  2.0390 -0.2822
 4984SOL     OW16392   0.592   4.733   6.621  0.0888  0.4760 -0.5252
 4984SOL    HW116393   0.681   4.732   6.654 -0.2521  1.6721  0.5053
 4984SOL    HW216394   0.559   4.645   6.637  0.5825  0.4720  0.5267
 4985SOL     OW16395   3.241   2.287   3.808 -0.8345 -0.9680 -0.1789
 4985SOL    HW116396   3.164   2.288   3.864 -1.1299  0.0439 -0.5759
 4985SOL    HW216397   3.314   2.275   3.868 -1.1972 -0.5224  0.3669
 4986SOL     OW16398   1.177   0.224   3.304 -0.2492 -0.4214  0.1035
 4986SOL    HW116399   1.269   0.211   3.330  1.2834  2.1188 -3.2643
 4986SOL    HW216400   1.155   0.144   3.256  1.3373  0.0863 -1.5895
 4987SOL     OW16401   6.565   6.547   3.327  0.3281 -0.0932  0.1058
 4987SOL    HW116402   6.511   6.624   3.309  0.0318 -0.5306 -0.9333
 4987SOL    HW216403   6.655   6.582   3.328  0.1332  0.4196  0.6053
 4988SOL     OW16404   0.208   0.870   9.224  0.0946 -0.2742 -0.0395
 4988SOL    HW116405   0.262   0.904   9.296  0.6127 -0.3526 -0.3862
 4988SOL    HW216406   0.138   0.822   9.268 -0.2113  0.5778  0.4388
 4989SOL     OW16407   1.227   4.712  10.036 -0.2049  0.0240  0.1414
 4989SOL    HW116408   1.217   4.648  10.106  0.8239  0.9808  1.2033
 4989SOL    HW216409   1.183   4.790  10.068  0.2774  0.4787 -0.2725
 4990SOL     OW16410   0.035   1.649   0.372  0.4710 -0.1652 -0.0576
 4990SOL    HW116411   0.107   1.603   0.328 -0.3426 -2.0070  0.4397
 4990SOL    HW216412  -0.042   1.595   0.354 -0.9138  1.9967 -0.9497
 4991SOL     OW16413   4.953   6.511  11.103 -0.1221  0.0313  0.4297
 4991SOL    HW116414   4.859   6.496  11.109 -0.4229  1.8021  0.6192
 4991SOL    HW216415   4.975   6.491  11.012 -0.8560  0.4736  0.1520
 4992SOL     OW16416   0.538   1.132   7.983 -0.2450 -0.3295  0.0883
 4992SOL    HW116417   0.498   1.183   7.912 -0.5854  0.5587  0.9004
 4992SOL    HW216418   0.564   1.050   7.942 -1.3527 -0.2341 -0.8382
 4993SOL     OW16419   6.970   1.956  11.584  0.3609 -0.3304  0.3572
 4993SOL    HW116420   6.938   2.010  11.511 -0.0409  0.7512  1.3070
 4993SOL    HW216421   6.896   1.900  11.606  0.7364 -1.2120 -0.5504
 4994SOL     OW16422   2.849   6.845   8.287 -0.3863  0.2999  0.5183
 4994SOL    HW116423   2.851   6.753   8.261  0.2375  0.2465  0.7493
 4994SOL    HW216424   2.790   6.847   8.363  0.2620 -0.0564  1.0449
 4995SOL     OW16425   6.645   6.613  10.508 -0.0220 -0.4308  0.4125
 4995SOL    HW116426   6.689   6.687  10.465 -2.2912  1.3693  0.9513
 4995SOL    HW216427   6.709   6.581  10.571  0.9634  1.2706  0.3492
 4996SOL     OW16428   7.536   7.467   5.972  0.3038  0.0253 -0.3428
 4996SOL    HW116429   7.568   7.508   5.892  1.2224 -0.8148 -0.4204
 4996SOL    HW216430   7.523   7.539   6.033 -0.7890  0.7265 -1.3599
 4997SOL     OW16431   7.566   4.180   7.323 -0.4863  1.1888 -0.1983
 4997SOL    HW116432   7.606   4.265   7.302  1.9665 -0.3995 -2.7020
 4997SOL    HW216433   7.497   4.169   7.258 -0.2837  0.9431 -0.3738
 4998SOL     OW16434   6.824   3.875  10.883 -0.3872 -0.1230 -0.2048
 4998SOL    HW116435   6.841   3.912  10.796 -0.5383 -1.5158 -0.8447
 4998SOL    HW216436   6.761   3.804  10.868 -0.9826  0.0709  1.1453
 4999SOL     OW16437   4.478   6.698   3.208 -0.1613  0.1140 -0.5043
 4999SOL    HW116438   4.405   6.753   3.237 -0.4942 -0.7515  0.3429
 4999SOL    HW216439   4.448   6.608   3.221  0.3010 -0.3106 -2.0378
 5000SOL     OW16440   6.546   6.713   6.873 -0.1717 -0.2981  0.1677
 5000SOL    HW116441   6.565   6.642   6.812 -0.0035 -0.2057  0.1125
 5000SOL    HW216442   6.602   6.696   6.948  1.1309  0.6980 -0.5346
 5001SOL     OW16443   7.230   0.140  10.208  0.1200 -0.5748 -0.0081
 5001SOL    HW116444   7.318   0.126  10.171  0.8261  2.1435  0.4126
 5001SOL    HW216445   7.216   0.065  10.266  0.0650 -3.6528 -3.5844
 5002SOL     OW16446   2.832   5.341  10.016  0.4998 -0.0687  0.3643
 5002SOL    HW116447   2.874   5.400  10.079  3.3304 -0.3713 -1.0970
 5002SOL    HW216448   2.799   5.400   9.947 -0.9805  0.1125  1.1860
 5003SOL     OW16449   1.359   1.366   0.508  0.0226 -0.3579  0.4924
 5003SOL    HW116450   1.273   1.352   0.470  0.2594 -0.3617 -0.0435
 5003SOL    HW216451   1.419   1.367   0.434  0.3052  1.1905  0.7022
 5004SOL     OW16452   7.633   1.681   2.063  0.0287 -0.1513  0.9029
 5004SOL    HW116453   7.703   1.660   2.002  0.9958 -0.0501  1.9396
 5004SOL    HW216454   7.554   1.685   2.009  0.9265  0.5001 -0.4170
 5005SOL     OW16455   0.420   1.268   0.759 -0.3027 -0.2428  0.2636
 5005SOL    HW116456   0.348   1.303   0.707  1.7177  2.3129 -1.0712
 5005SOL    HW216457   0.393   1.280   0.850 -1.7859  0.0567 -0.1889
 5006SOL     OW16458   0.973   2.064   1.817  0.3337 -0.2138  0.0682
 5006SOL    HW116459   1.011   1.981   1.790 -1.7891 -1.4109  0.4790
 5006SOL    HW216460   1.048   2.120   1.837  1.8606 -2.5745  1.4088
 5007SOL     OW16461   6.373   6.078   7.785  0.0995  0.2533 -0.4823
 5007SOL    HW116462   6.350   5.994   7.744  1.8759 -0.3364 -0.3745
 5007SOL    HW216463   6.335   6.144   7.727 -1.5200 -0.5889 -0.4586
 5008SOL     OW16464   1.717   4.657   7.564  0.9298  0.3317 -0.0355
 5008SOL    HW116465   1.730   4.585   7.502  0.1143  1.0087 -1.0069
 5008SOL    HW216466   1.761   4.627   7.644 -1.0230 -2.1175  0.2365
 5009SOL     OW16467   0.428   2.487   5.320  0.3774 -0.0103  0.0708
 5009SOL    HW116468   0.509   2.490   5.270  0.5873  1.5701  0.4521
 5009SOL    HW216469   0.364   2.531   5.265  0.0862 -0.1253  0.3112
 5010SOL     OW16470   5.160   5.396  11.389  0.0545  0.5990  0.0881
 5010SOL    HW116471   5.123   5.320  11.345 -1.8443 -0.7202  3.4922
 5010SOL    HW216472   5.083   5.442  11.425  1.3683  1.6197  1.7579
 5011SOL     OW16473   5.703   3.858  11.145  0.2794 -0.3302  0.6555
 5011SOL    HW116474   5.624   3.911  11.144 -0.1192 -0.9199 -0.1221
 5011SOL    HW216475   5.774   3.921  11.130 -0.1380  0.0600  0.2702
 5012SOL     OW16476   3.777   1.294  12.340  0.6224  0.0803 -0.0262
 5012SOL    HW116477   3.861   1.272  12.380  0.6369  0.5057  0.1899
 5012SOL    HW216478   3.799   1.352  12.268  0.4388  1.2642  0.8363
 5013SOL     OW16479   4.278   3.978   0.612 -0.4334 -0.5381  0.0141
 5013SOL    HW116480   4.245   3.939   0.693 -2.9559 -1.2653 -1.2369
 5013SOL    HW216481   4.239   3.925   0.543  0.0165  1.2571 -1.7061
 5014SOL     OW16482   0.078   7.097   0.070 -0.6998  0.2591  0.3434
 5014SOL    HW116483   0.045   7.055   0.149  0.5992  2.0077  1.8951
 5014SOL    HW216484   0.151   7.042   0.042  0.8775  1.2442  2.2568
 5015SOL     OW16485   5.597   7.083  10.117 -0.3193 -0.5389 -0.2504
 5015SOL    HW116486   5.639   7.002  10.086 -1.7126 -1.1688 -0.5502
 5015SOL    HW216487   5.558   7.060  10.201  0.6256  0.2831  0.4456
 5016SOL     OW16488   7.475   7.058   1.041  0.0673 -0.8240  1.0519
 5016SOL    HW116489   7.496   7.096   1.127  0.5392  0.1519  0.5250
 5016SOL    HW216490   7.543   6.993   1.025  2.7649  2.1276 -0.5280
 5017SOL     OW16491   1.124   6.379   5.486  0.4512  0.0689  0.2117
 5017SOL    HW116492   1.049   6.432   5.457 -0.4528  0.5601  3.1707
 5017SOL    HW216493   1.199   6.439   5.481 -0.0582  0.7741  0.8786
 5018SOL     OW16494   7.594   4.237  10.977 -0.4161  0.1878 -0.0155
 5018SOL    HW116495   7.674   4.277  10.943 -0.6723 -0.8454 -1.9898
 5018SOL    HW216496   7.605   4.144  10.961 -2.3514  0.0937 -1.1709
 5019SOL     OW16497   6.135   7.383   9.283  0.1378 -0.0980 -0.5395
 5019SOL    HW116498   6.195   7.429   9.342 -1.0630 -0.0205  0.6581
 5019SOL    HW216499   6.192   7.345   9.217  1.3104  2.0684 -0.8878
 5020SOL     OW16500   6.006   3.754   3.620 -0.5249 -0.0220  0.1430
 5020SOL    HW116501   6.098   3.771   3.600 -0.9531  0.6693 -1.4220
 5020SOL    HW216502   5.986   3.672   3.575 -0.3373 -0.9611  1.6867
 5021SOL     OW16503   7.484   2.656   0.741  0.0335 -0.1564  0.1471
 5021SOL    HW116504   7.515   2.687   0.826  0.5591  0.4314 -0.2527
 5021SOL    HW216505   7.486   2.733   0.685 -0.6372 -0.4649 -0.3125
 5022SOL     OW16506   1.858   0.425   7.428  0.3395  0.7682  0.0347
 5022SOL    HW116507   1.834   0.488   7.497 -1.9449  0.5161 -0.4249
 5022SOL    HW216508   1.784   0.429   7.367  0.2459 -2.1428 -0.1575
 5023SOL     OW16509   3.839   3.388   4.326  0.3479 -0.1671 -0.3935
 5023SOL    HW116510   3.837   3.311   4.383 -2.0351 -0.3884 -0.6752
 5023SOL    HW216511   3.852   3.462   4.385  1.0646 -0.6453  0.0587
 5024SOL     OW16512   0.492   5.214  10.560 -0.2912  0.3137  0.5779
 5024SOL    HW116513   0.525   5.297  10.593  0.5395  0.3047 -0.1851
 5024SOL    HW216514   0.398   5.217  10.576 -0.1147  0.9214  1.5754
 5025SOL     OW16515   0.819   5.943   5.476  0.2358  0.3068 -0.0455
 5025SOL    HW116516   0.909   5.920   5.499 -0.0523 -0.1917  0.6106
 5025SOL    HW216517   0.778   5.964   5.559 -1.0056 -2.1594  0.0698
 5026SOL     OW16518   2.595   7.811   7.891  0.0722  0.0048  0.0378
 5026SOL    HW116519   2.544   7.731   7.874  0.8190 -0.0922 -2.1370
 5026SOL    HW216520   2.646   7.791   7.969 -1.5810 -0.6929  0.9976
 5027SOL     OW16521   3.427   3.034   7.190  0.1469  0.3950  0.8080
 5027SOL    HW116522   3.420   2.997   7.278 -0.9155 -2.1368 -0.2353
 5027SOL    HW216523   3.338   3.056   7.165  0.3108  0.2344  0.0436
 5028SOL     OW16524   5.241   3.593   9.728  0.4822 -0.7567 -0.0760
 5028SOL    HW116525   5.150   3.615   9.751  0.7853  1.2809 -0.5845
 5028SOL    HW216526   5.289   3.598   9.810  0.3173 -0.7710  0.0213
 5029SOL     OW16527   0.116   5.512   9.464 -0.4909 -1.0515  0.2245
 5029SOL    HW116528   0.133   5.586   9.406 -0.4847 -1.4135 -0.2459
 5029SOL    HW216529   0.105   5.438   9.405 -1.5131 -1.2396  0.6406
 5030SOL     OW16530   1.895   3.097   6.760 -0.2320 -0.3439  0.5488
 5030SOL    HW116531   1.892   3.192   6.746 -2.0921 -0.2982  0.9282
 5030SOL    HW216532   1.953   3.085   6.835  1.1560  0.3446 -0.3737
 5031SOL     OW16533   5.513   6.171   8.158  0.1278 -0.0013 -0.1463
 5031SOL    HW116534   5.424   6.203   8.142  0.7385  1.3589 -0.9552
 5031SOL    HW216535   5.570   6.243   8.132  1.5634 -1.5296 -1.4744
 5032SOL     OW16536   1.789   2.338   7.177 -0.1023  0.4730  0.3151
 5032SOL    HW116537   1.855   2.295   7.121 -0.9060 -0.2162 -0.1240
 5032SOL    HW216538   1.714   2.279   7.174 -0.2002  0.4742  2.0743
 5033SOL     OW16539   6.614   7.502   2.225  0.2205 -0.5345 -0.0421
 5033SOL    HW116540   6.584   7.557   2.297 -0.0527 -0.6289 -0.0830
 5033SOL    HW216541   6.573   7.540   2.147 -0.7171 -1.3431  0.0423
 5034SOL     OW16542   7.029   2.526   2.358 -0.2398  0.2892 -0.5450
 5034SOL    HW116543   7.088   2.506   2.430 -0.4325 -0.3418 -0.5592
 5034SOL    HW216544   7.060   2.610   2.324 -1.2788  1.5662  1.4720
 5035SOL     OW16545   4.101   3.864  12.236 -0.9857 -0.2621 -0.5597
 5035SOL    HW116546   4.102   3.769  12.248  0.8955 -0.1955  0.1232
 5035SOL    HW216547   4.122   3.899  12.323 -0.7528  0.7504 -1.0083
 5036SOL     OW16548   5.217   0.558   0.836  0.7379 -0.0808  0.2188
 5036SOL    HW116549   5.183   0.471   0.814  1.9747 -0.3544 -0.7733
 5036SOL    HW216550   5.145   0.601   0.881  0.6060 -2.1518  2.1599
 5037SOL     OW16551   2.362   2.122   0.929 -1.1269 -0.5008  0.2497
 5037SOL    HW116552   2.355   2.054   0.997  0.2069 -0.0032  0.9139
 5037SOL    HW216553   2.347   2.075   0.847  1.0031 -1.8980  0.5851
 5038SOL     OW16554   4.749   1.228  11.767 -0.3977  0.2096  0.3288
 5038SOL    HW116555   4.722   1.281  11.842  0.9294  0.1865  0.8523
 5038SOL    HW216556   4.702   1.265  11.693 -1.9112  0.0850  1.1966
 5039SOL     OW16557   4.918   2.482   0.055  0.2184  0.7365  0.1628
 5039SOL    HW116558   4.844   2.521   0.009  0.1803  0.5506  0.0659
 5039SOL    HW216559   4.884   2.400   0.091  0.6375  0.1505 -0.7379
 5040SOL     OW16560   1.822   6.254   9.412  0.1030 -0.2419  0.1512
 5040SOL    HW116561   1.826   6.177   9.469 -0.4582 -0.8200 -0.5734
 5040SOL    HW216562   1.816   6.328   9.472  0.2302 -0.7951  0.8538
 5041SOL     OW16563   1.020   6.493   7.204  0.3437  0.2476  0.2565
 5041SOL    HW116564   0.995   6.401   7.193  1.2029 -0.0878  0.9274
 5041SOL    HW216565   0.944   6.542   7.174 -0.9967 -0.7010  1.9263
 5042SOL     OW16566   5.057   5.508   2.690  0.2246 -0.1709 -0.1320
 5042SOL    HW116567   5.125   5.522   2.624 -0.3152  1.5340 -0.3897
 5042SOL    HW216568   4.984   5.470   2.642  0.0582  0.4821 -0.4038
 5043SOL     OW16569   3.884   0.488  11.906 -0.5065  0.3977  0.0570
 5043SOL    HW116570   3.798   0.446  11.905 -0.3170 -0.0683  1.1175
 5043SOL    HW216571   3.865   0.582  11.900 -0.9593  0.2261 -1.8713
 5044SOL     OW16572   5.583   1.306   3.433 -0.2004  0.5542  0.1433
 5044SOL    HW116573   5.514   1.371   3.432 -0.6100  0.1524  1.1960
 5044SOL    HW216574   5.599   1.288   3.526 -0.1335 -0.8647 -0.1125
 5045SOL     OW16575   6.940   4.464   4.566  1.0691  0.2686  0.1454
 5045SOL    HW116576   6.907   4.551   4.589  0.1515 -0.2477  0.8433
 5045SOL    HW216577   6.909   4.450   4.476  0.4134  0.2885  0.3615
 5046SOL     OW16578   0.506   4.671   7.074  0.2776  0.2632  1.0384
 5046SOL    HW116579   0.440   4.627   7.021  0.1478 -0.5267  1.8446
 5046SOL    HW216580   0.534   4.605   7.138  2.3438  0.3274  0.3007
 5047SOL     OW16581   1.025   5.072   8.783  0.0155  0.4949 -0.7732
 5047SOL    HW116582   1.023   5.089   8.877 -3.7654  1.1651 -0.8437
 5047SOL    HW216583   1.077   4.993   8.774  0.6042  0.5020  1.8419
 5048SOL     OW16584   1.066   1.198   2.493 -0.3788  0.4661  0.5014
 5048SOL    HW116585   1.125   1.261   2.451 -0.1665  1.2599  1.9508
 5048SOL    HW216586   0.980   1.219   2.457 -0.0097  0.1818 -0.6118
 5049SOL     OW16587   3.990   3.178   1.469 -0.1988  0.2113 -0.0505
 5049SOL    HW116588   4.013   3.220   1.552  0.5271 -1.2496  0.5266
 5049SOL    HW216589   3.900   3.149   1.482  0.1266 -0.5907  0.4939
 5050SOL     OW16590   2.958   6.997   1.239  0.3927 -0.0083  0.0605
 5050SOL    HW116591   2.915   6.988   1.324 -0.6889 -0.6179 -0.5329
 5050SOL    HW216592   3.015   7.073   1.250 -0.9299  0.9239  0.8559
 5051SOL     OW16593   0.549   5.679   7.520 -0.1628 -0.4637 -0.2314
 5051SOL    HW116594   0.473   5.730   7.492 -1.3435 -1.5288  0.8666
 5051SOL    HW216595   0.617   5.744   7.538 -1.0333  0.5707 -0.5952
 5052SOL     OW16596   0.412   4.195   6.679 -0.5086 -0.0823 -0.6094
 5052SOL    HW116597   0.464   4.135   6.731 -1.6657 -0.4206  0.1954
 5052SOL    HW216598   0.322   4.183   6.711 -0.8231  1.8068 -0.6658
 5053SOL     OW16599   7.181   0.367   3.361 -0.4591  0.4705 -0.3028
 5053SOL    HW116600   7.135   0.324   3.288  0.0033 -0.3445 -0.1341
 5053SOL    HW216601   7.263   0.318   3.369 -0.8263  0.0535  1.2556
 5054SOL     OW16602   2.921   1.690   0.486 -0.2001  0.2964 -0.3525
 5054SOL    HW116603   2.882   1.712   0.401  0.5248  1.2755 -0.4539
 5054SOL    HW216604   2.981   1.618   0.466  0.0839  0.6252 -0.7043
 5055SOL     OW16605   3.924   4.405   6.005 -0.0040 -0.2327 -0.5167
 5055SOL    HW116606   3.928   4.469   5.935 -1.0117  1.1060  0.6074
 5055SOL    HW216607   4.006   4.356   5.997  0.4865  0.7460 -1.7924
 5056SOL     OW16608   7.423   2.104   2.514 -0.2282  0.3915 -0.1438
 5056SOL    HW116609   7.394   2.015   2.491 -0.6240  0.4351  0.1722
 5056SOL    HW216610   7.416   2.154   2.433 -0.6529  0.2996 -0.1668
 5057SOL     OW16611   7.880   1.676   5.568 -0.3116 -0.3703  0.0746
 5057SOL    HW116612   7.831   1.757   5.582 -0.0487 -0.4697  1.8731
 5057SOL    HW216613   7.844   1.615   5.632  0.8783 -1.0142  0.1638
 5058SOL     OW16614   0.599   3.233  11.769  0.3221 -0.6625  0.2064
 5058SOL    HW116615   0.507   3.227  11.741  0.4147 -1.9027  0.1374
 5058SOL    HW216616   0.594   3.256  11.862 -0.0342  0.0683  0.0177
 5059SOL     OW16617   5.662   3.404   6.174  0.4766 -0.3993  0.2499
 5059SOL    HW116618   5.678   3.460   6.250  1.2587 -0.6712  0.2923
 5059SOL    HW216619   5.644   3.465   6.103  0.6728 -0.1123  0.4444
 5060SOL     OW16620   7.831   4.462   1.677 -0.0992 -0.5097  0.1378
 5060SOL    HW116621   7.867   4.418   1.754 -1.1633 -0.3337  0.7697
 5060SOL    HW216622   7.906   4.505   1.636  0.5284 -0.8097  0.9481
 5061SOL     OW16623   0.615   7.230   5.417 -0.3608  0.2346  0.4541
 5061SOL    HW116624   0.697   7.218   5.466 -1.5914 -0.3723  2.4600
 5061SOL    HW216625   0.593   7.142   5.385 -0.8410  0.1646  0.9651
 5062SOL     OW16626   2.219   2.178   9.180 -0.1788  0.3109  0.5446
 5062SOL    HW116627   2.232   2.227   9.099 -0.4286 -0.1955  0.1929
 5062SOL    HW216628   2.267   2.096   9.167  0.0171  0.3449  1.0224
 5063SOL     OW16629   6.913   7.739   8.652  0.0911  0.4849  0.4804
 5063SOL    HW116630   6.836   7.796   8.663  0.0443  0.8573 -1.5245
 5063SOL    HW216631   6.877   7.651   8.644 -0.0767  0.5689  0.3107
 5064SOL     OW16632   7.926   7.658   9.005  0.1488  0.1589 -0.2018
 5064SOL    HW116633   7.870   7.597   8.957  0.6549 -2.1522  1.9457
 5064SOL    HW216634   7.955   7.721   8.939 -2.3204 -0.4898 -2.0428
 5065SOL     OW16635   4.170   7.854   9.489 -0.2007 -0.0015  0.0886
 5065SOL    HW116636   4.162   7.939   9.445 -2.1368  0.3907  1.0730
 5065SOL    HW216637   4.080   7.832   9.514 -0.3274 -3.8733 -2.8606
 5066SOL     OW16638   6.605   6.087   8.418 -0.2128 -0.1709 -0.6312
 5066SOL    HW116639   6.629   6.004   8.460 -0.1583 -0.9806 -2.1774
 5066SOL    HW216640   6.688   6.127   8.395 -0.2509  0.0790 -0.3401
 5067SOL     OW16641   0.215   3.272   6.644  0.0531 -0.6380  0.0716
 5067SOL    HW116642   0.311   3.265   6.642  0.1103 -0.0527  0.5248
 5067SOL    HW216643   0.189   3.265   6.552  0.4697 -1.5626  0.0123
 5068SOL     OW16644   6.223   4.646   3.430  0.4626 -0.1794  0.1927
 5068SOL    HW116645   6.129   4.648   3.414  0.7472  0.7804 -1.7242
 5068SOL    HW216646   6.248   4.738   3.436  1.1961 -0.4342  1.4435
 5069SOL     OW16647   6.022   4.458  10.110 -0.1741 -0.0719 -0.3091
 5069SOL    HW116648   6.090   4.407  10.153  0.0965  1.4066  1.1373
 5069SOL    HW216649   5.943   4.405  10.120 -0.1087  0.1335  2.0224
 5070SOL     OW16650   2.270   1.881   1.475 -0.0853 -0.1363 -0.6980
 5070SOL    HW116651   2.283   1.976   1.474 -0.1824  0.0173  2.4808
 5070SOL    HW216652   2.356   1.844   1.454 -0.1741  0.5910 -2.5152
 5071SOL     OW16653   4.805   4.610   4.067  0.0308 -0.6942 -0.3004
 5071SOL    HW116654   4.725   4.647   4.029  0.3627 -0.1579 -0.4730
 5071SOL    HW216655   4.875   4.669   4.040  0.1914  0.0815  1.6566
 5072SOL     OW16656   1.337   0.026   5.604  0.3994 -0.0366  0.2127
 5072SOL    HW116657   1.255  -0.011   5.636  0.1197  1.0393  0.7861
 5072SOL    HW216658   1.404  -0.037   5.633 -0.3239 -1.6941 -1.5644
 5073SOL     OW16659   4.227   7.022   3.689 -0.2804  0.2795 -0.8800
 5073SOL    HW116660   4.294   7.010   3.623  0.8699 -1.1979  0.4831
 5073SOL    HW216661   4.188   6.936   3.701 -0.1429  0.4056  0.6730
 5074SOL     OW16662   7.613   1.718   8.222 -0.7916 -0.2235 -0.0338
 5074SOL    HW116663   7.540   1.780   8.221 -0.0901  0.6237 -0.5355
 5074SOL    HW216664   7.625   1.695   8.130  0.0499  0.2378 -0.0497
 5075SOL     OW16665   2.780   0.886   7.977 -0.0051  0.5336 -0.0054
 5075SOL    HW116666   2.767   0.829   8.054  0.0502  0.6926  0.1220
 5075SOL    HW216667   2.849   0.842   7.927 -0.6723 -0.0545 -0.4364
 5076SOL     OW16668   3.040   5.783   2.763  0.0441  0.7052 -0.0088
 5076SOL    HW116669   3.035   5.777   2.668 -3.7725 -0.5085  0.0971
 5076SOL    HW216670   2.976   5.850   2.786  2.2069  2.3319  1.7283
 5077SOL     OW16671   5.549   2.979  12.302  0.0242 -0.3192 -0.4691
 5077SOL    HW116672   5.522   2.980  12.394  0.7532  1.1838 -0.2201
 5077SOL    HW216673   5.630   2.928  12.302  1.2667  1.5053  0.1981
 5078SOL     OW16674   5.401   6.473   8.910  0.3878 -0.2089 -0.2372
 5078SOL    HW116675   5.314   6.433   8.914  0.0060  0.5164 -0.9509
 5078SOL    HW216676   5.384   6.567   8.911  1.2303 -0.0497  0.6341
 5079SOL     OW16677   0.371   2.731   3.726 -0.3064 -0.0513 -0.1732
 5079SOL    HW116678   0.308   2.659   3.721 -0.6506  0.3104 -1.3382
 5079SOL    HW216679   0.419   2.715   3.808 -1.9374 -0.3058  0.7843
 5080SOL     OW16680   5.391   3.784  10.254  0.4122  0.4341 -1.0362
 5080SOL    HW116681   5.375   3.878  10.243  0.1600  0.4188 -0.8070
 5080SOL    HW216682   5.486   3.776  10.257  0.4640  0.5653 -2.0781
 5081SOL     OW16683   3.921   1.212  10.886  0.1886  0.2477  0.2362
 5081SOL    HW116684   3.874   1.294  10.869 -0.3480 -0.1444 -0.2182
 5081SOL    HW216685   4.005   1.222  10.840  0.6159  0.9962  1.1467
 5082SOL     OW16686   2.050   6.187   5.901  0.4496 -0.3839  0.6040
 5082SOL    HW116687   2.060   6.096   5.928  2.8003 -0.1375  0.7411
 5082SOL    HW216688   2.060   6.185   5.806 -1.8089 -0.4982  0.3142
 5083SOL     OW16689   2.484   0.793   8.945 -0.3181 -0.3247  0.0581
 5083SOL    HW116690   2.426   0.855   8.987  1.5603  0.5427  1.5379
 5083SOL    HW216691   2.491   0.720   9.007  2.0549  0.7226  1.1686
 5084SOL     OW16692   6.525   0.230   3.607  0.0238 -0.5757 -0.1365
 5084SOL    HW116693   6.621   0.232   3.608  0.0368  0.0425  2.0776
 5084SOL    HW216694   6.501   0.294   3.540  1.1723  0.4281  0.3648
 5085SOL     OW16695   4.716   2.257   1.969 -0.2410 -0.0253 -0.0816
 5085SOL    HW116696   4.651   2.230   1.905 -0.0949 -2.3166  0.6267
 5085SOL    HW216697   4.799   2.255   1.921 -0.4873  1.5631 -0.6309
 5086SOL     OW16698   5.518   2.513   5.407 -0.6087 -0.8322 -0.2491
 5086SOL    HW116699   5.489   2.422   5.407 -0.9613 -0.7283  0.2376
 5086SOL    HW216700   5.487   2.549   5.324  1.1054 -1.6252 -1.2763
 5087SOL     OW16701   1.904   1.370  11.492 -0.0839 -0.0417 -0.1514
 5087SOL    HW116702   1.919   1.306  11.562 -1.2023  0.5708  0.6870
 5087SOL    HW216703   1.867   1.318  11.420 -1.8696 -0.2412  0.8526
 5088SOL     OW16704   1.951   6.324  11.896  0.3573  0.0165 -0.0348
 5088SOL    HW116705   1.931   6.308  11.804 -0.7601  2.6432 -0.3598
 5088SOL    HW216706   1.866   6.330  11.938  0.7775  0.9923  0.7133
 5089SOL     OW16707   7.919   7.468   7.150 -0.0037  0.4997  0.2259
 5089SOL    HW116708   7.983   7.534   7.121 -0.5701  0.6856 -0.6320
 5089SOL    HW216709   7.914   7.479   7.244  1.7602  0.0128  0.4100
 5090SOL     OW16710   0.132   7.269   5.019  0.2854 -0.2320 -0.1179
 5090SOL    HW116711   0.223   7.298   5.020  0.7416 -1.6249  0.2857
 5090SOL    HW216712   0.099   7.291   5.106  0.4636 -0.3952 -0.0070
 5091SOL     OW16713   5.620   0.216   0.332 -0.1488 -0.0549 -0.3396
 5091SOL    HW116714   5.681   0.148   0.360 -0.8331 -0.1906  0.8938
 5091SOL    HW216715   5.570   0.238   0.411 -1.1929  0.5668 -1.1397
 5092SOL     OW16716   7.391   1.569   6.601 -0.0333 -0.0217  0.0711
 5092SOL    HW116717   7.415   1.511   6.674 -0.0893  0.1523  0.2271
 5092SOL    HW216718   7.388   1.511   6.525  0.4170 -0.1338  0.1365
 5093SOL     OW16719   4.501   3.678  12.341  0.0941 -0.1190  0.7567
 5093SOL    HW116720   4.448   3.619  12.287  2.1824 -1.6964  0.3230
 5093SOL    HW216721   4.561   3.621  12.388  2.0009  1.6125  0.5819
 5094SOL     OW16722   4.147   5.995  12.076 -0.4233  0.2363 -0.1641
 5094SOL    HW116723   4.177   6.065  12.134 -0.8330 -0.5284  0.9833
 5094SOL    HW216724   4.220   5.933  12.075 -1.1245 -0.6418  1.0226
 5095SOL     OW16725   0.151   0.647   1.013 -0.1614  0.1100 -0.1427
 5095SOL    HW116726   0.218   0.589   0.975 -0.0409  0.3652 -0.3183
 5095SOL    HW216727   0.178   0.735   0.987 -0.2424  0.2613  0.2797
 5096SOL     OW16728   2.237   7.482  12.403 -0.0250 -0.0697 -0.6926
 5096SOL    HW116729   2.267   7.507  12.490 -0.6973 -0.1416 -0.4364
 5096SOL    HW216730   2.295   7.529  12.343  0.5270 -0.1248 -0.2111
 5097SOL     OW16731   2.720   6.036   0.083  0.2753  0.5022  0.6518
 5097SOL    HW116732   2.722   6.131   0.073  0.0079  0.3642 -1.0475
 5097SOL    HW216733   2.685   6.021   0.170 -0.4687  1.9498  0.6207
 5098SOL     OW16734   7.815   5.661   6.623  0.1505  0.0378  0.5057
 5098SOL    HW116735   7.847   5.598   6.688 -0.1875 -0.2794  0.3657
 5098SOL    HW216736   7.721   5.647   6.619  0.3142 -0.9098 -1.0447
 5099SOL     OW16737   1.000   5.640   1.855  0.2327  0.3484 -0.4396
 5099SOL    HW116738   1.073   5.608   1.802  1.7152  0.4157  1.4694
 5099SOL    HW216739   0.986   5.571   1.921  0.8062  1.7904  1.2500
 5100SOL     OW16740   0.510   0.828  11.633  0.4918 -0.2900  0.2801
 5100SOL    HW116741   0.559   0.747  11.645  0.7351  0.2043  3.6155
 5100SOL    HW216742   0.570   0.885  11.584  1.6414 -1.0673  0.7488
 5101SOL     OW16743   0.848   1.448   6.147 -0.2555  0.4466 -0.1436
 5101SOL    HW116744   0.833   1.406   6.062  0.9646 -0.3930  0.0288
 5101SOL    HW216745   0.900   1.526   6.127 -2.8508  2.2045 -0.5085
 5102SOL     OW16746   3.825   2.074  11.940  0.0927 -0.0615 -0.0068
 5102SOL    HW116747   3.806   2.159  11.901 -1.4442 -0.5513 -0.3782
 5102SOL    HW216748   3.848   2.094  12.031 -0.0740  0.7585 -0.1399
 5103SOL     OW16749   3.135   5.830   4.897 -0.0889  0.2615 -0.3041
 5103SOL    HW116750   3.084   5.766   4.945  2.1268 -0.8851  0.6476
 5103SOL    HW216751   3.100   5.915   4.925 -1.1677 -0.4591  0.5962
 5104SOL     OW16752   7.246   3.770   4.025  0.0143 -0.2194  0.5875
 5104SOL    HW116753   7.199   3.687   4.017 -0.2634 -0.1231  1.1226
 5104SOL    HW216754   7.180   3.836   4.002  0.5320 -0.1878 -0.8984
 5105SOL     OW16755   1.472   3.978  10.223 -0.0483 -0.2042  0.0929
 5105SOL    HW116756   1.487   3.924  10.300  2.4107  0.9687  0.5145
 5105SOL    HW216757   1.533   3.945  10.157 -2.4435 -1.5168 -1.6420
 5106SOL     OW16758   5.048   7.609  11.686 -0.8373  0.2126 -0.0347
 5106SOL    HW116759   5.086   7.573  11.765 -1.7506 -0.9305 -0.0879
 5106SOL    HW216760   5.120   7.655  11.643  0.0439 -0.4652  0.6852
 5107SOL     OW16761   4.612   7.188  11.620  0.5614  0.0161 -0.0762
 5107SOL    HW116762   4.541   7.251  11.618  0.7510  0.2422  0.1332
 5107SOL    HW216763   4.676   7.226  11.680  0.0186 -1.0862  1.2726
 5108SOL     OW16764   4.934   7.338   9.008  0.1275 -0.0086 -0.4703
 5108SOL    HW116765   5.003   7.335   8.942  1.7826 -0.8493  1.1784
 5108SOL    HW216766   4.914   7.431   9.018 -0.5196  0.0984 -2.4611
 5109SOL     OW16767   6.487   2.683   1.480 -0.1140  0.1737  0.4156
 5109SOL    HW116768   6.465   2.769   1.444  2.9787  1.4095  1.1197
 5109SOL    HW216769   6.415   2.626   1.454 -1.9508  2.8067 -0.6692
 5110SOL     OW16770   3.921   0.373  10.374 -0.1196 -0.0631  0.6224
 5110SOL    HW116771   3.897   0.290  10.416 -1.7950 -0.9883 -1.8710
 5110SOL    HW216772   3.931   0.435  10.446  2.6130 -2.6737  2.7033
 5111SOL     OW16773   0.602   2.419   8.022 -0.2214  0.6685 -0.3312
 5111SOL    HW116774   0.659   2.438   8.097 -0.6001  0.5683 -0.0133
 5111SOL    HW216775   0.658   2.370   7.962 -0.1930 -0.1565  0.3449
 5112SOL     OW16776   4.836   6.410   6.510 -0.3032  0.2019 -0.7739
 5112SOL    HW116777   4.900   6.406   6.439  0.7754 -0.2537  0.1894
 5112SOL    HW216778   4.826   6.504   6.527  0.7453  0.2679 -0.4150
 5113SOL     OW16779   3.499   5.644   3.022  0.1584 -1.0470  0.0233
 5113SOL    HW116780   3.450   5.644   3.105 -0.8670  1.2455 -0.4844
 5113SOL    HW216781   3.482   5.558   2.984 -1.7288 -1.1127  0.8995
 5114SOL     OW16782   0.840   1.859  12.386  0.1158 -0.8474  0.1539
 5114SOL    HW116783   0.864   1.918  12.458  0.5167  0.8175 -1.2769
 5114SOL    HW216784   0.924   1.837  12.344 -0.1845 -1.2140 -0.2587
 5115SOL     OW16785   5.500   1.825   2.429 -0.0751  0.0824  0.4451
 5115SOL    HW116786   5.505   1.756   2.495  0.4830  1.4190  1.8451
 5115SOL    HW216787   5.428   1.881   2.457  0.8167  1.2320  0.5047
 5116SOL     OW16788   2.211   3.296   2.487 -0.9236  0.3379  0.5297
 5116SOL    HW116789   2.165   3.232   2.541  0.9113 -1.3166  0.2369
 5116SOL    HW216790   2.274   3.245   2.438  1.4037  2.4785  1.0847
 5117SOL     OW16791   6.064   7.790   2.634  0.3972 -0.2133 -0.6264
 5117SOL    HW116792   6.079   7.846   2.709 -0.4433  0.0209 -0.6153
 5117SOL    HW216793   6.145   7.793   2.584  1.1352 -0.7566  0.5087
 5118SOL     OW16794   4.327   6.871   9.225  0.0595  0.2988 -0.4059
 5118SOL    HW116795   4.409   6.910   9.256 -0.8490  2.2565 -0.3166
 5118SOL    HW216796   4.343   6.851   9.133  0.9502 -0.3202 -0.1355
 5119SOL     OW16797   2.523   5.390   2.417  0.5067 -0.0309  0.4207
 5119SOL    HW116798   2.462   5.316   2.419 -1.6304  1.5365 -1.3085
 5119SOL    HW216799   2.583   5.369   2.345  1.6131 -1.2233  1.6315
 5120SOL     OW16800   7.368   0.502   8.737  0.3323 -0.0148  0.0061
 5120SOL    HW116801   7.447   0.474   8.783 -0.6875 -1.7174  0.8282
 5120SOL    HW216802   7.390   0.495   8.644  0.9084 -1.2858  0.2128
 5121SOL     OW16803   3.301   0.397  12.227  0.8294  0.1582 -0.5666
 5121SOL    HW116804   3.382   0.360  12.192  0.4655  0.0800 -1.3562
 5121SOL    HW216805   3.232   0.341  12.193  0.3712  0.7758 -0.6792
 5122SOL     OW16806   0.994   6.331  12.115  0.1503 -0.8477 -0.2551
 5122SOL    HW116807   0.959   6.341  12.027  0.9782  2.1781 -0.3654
 5122SOL    HW216808   0.917   6.335  12.172 -0.1518  0.7376 -0.7197
 5123SOL     OW16809   1.739   4.713  11.259  0.1884 -1.0184 -0.3822
 5123SOL    HW116810   1.787   4.632  11.244 -0.2012 -1.6130  1.3722
 5123SOL    HW216811   1.741   4.725  11.354  0.5661  1.2349 -0.6106
 5124SOL     OW16812   7.523   4.141   8.214  0.3177 -0.1079 -0.0792
 5124SOL    HW116813   7.470   4.182   8.146  0.6938  2.1551  0.9140
 5124SOL    HW216814   7.470   4.067   8.245 -0.8082  0.1464 -1.3155
 5125SOL     OW16815   4.447   1.977   8.866  0.1657  0.9126  0.0713
 5125SOL    HW116816   4.442   1.956   8.960 -0.7350  0.8172  0.0058
 5125SOL    HW216817   4.462   2.072   8.864  0.2762  0.9029  0.3063
 5126SOL     OW16818   5.828   1.571   3.702  0.6523 -0.3964  0.3717
 5126SOL    HW116819   5.781   1.489   3.687 -0.7293  0.6763 -1.4813
 5126SOL    HW216820   5.904   1.566   3.645  0.0423  0.0104 -0.4877
 5127SOL     OW16821   2.766   6.888   0.183  0.1584  0.3370 -0.3420
 5127SOL    HW116822   2.713   6.922   0.255  0.9286  1.8756 -0.4705
 5127SOL    HW216823   2.788   6.799   0.209 -0.5881  0.4566  0.7535
 5128SOL     OW16824   0.898   7.646   9.559 -0.1896 -0.0961  0.3569
 5128SOL    HW116825   0.928   7.696   9.483 -0.9977  2.3837  1.5512
 5128SOL    HW216826   0.963   7.664   9.627 -0.4330 -0.8020  0.7838
 5129SOL     OW16827   1.146   6.583   5.784  0.3323  0.0381  0.0619
 5129SOL    HW116828   1.200   6.641   5.730 -1.9848  1.8340 -0.5420
 5129SOL    HW216829   1.139   6.629   5.868 -1.2799  0.5881 -0.3229
 5130SOL     OW16830   1.150   6.635   3.135  0.1849  0.3148 -0.5158
 5130SOL    HW116831   1.210   6.710   3.133 -0.0640  0.6258  1.4227
 5130SOL    HW216832   1.183   6.576   3.068  1.7485  1.1591 -0.5398
 5131SOL     OW16833   2.189   0.448   3.787 -0.1146  0.6329  0.0572
 5131SOL    HW116834   2.133   0.432   3.711 -2.5180  1.6295  1.5192
 5131SOL    HW216835   2.240   0.367   3.796 -0.2785  0.2286 -2.1554
 5132SOL     OW16836   3.611   0.010   8.033  0.2505 -0.6499 -0.5207
 5132SOL    HW116837   3.648   0.016   8.121  0.8765 -1.0881 -0.7450
 5132SOL    HW216838   3.520   0.035   8.043  0.0583 -1.6701  0.4273
 5133SOL     OW16839   5.268   5.772   3.632  0.1454 -0.0783  0.1084
 5133SOL    HW116840   5.188   5.813   3.665 -1.5462 -1.0058 -2.5636
 5133SOL    HW216841   5.338   5.827   3.667 -1.7085  1.6897  1.3107
 5134SOL     OW16842   6.661   5.259   5.335  0.2236 -0.2044 -0.1523
 5134SOL    HW116843   6.644   5.238   5.427  1.0099  0.1892  0.0877
 5134SOL    HW216844   6.585   5.310   5.308 -0.4861 -1.1569 -0.0107
 5135SOL     OW16845   2.805   1.806   7.814 -0.7173  0.0402 -0.0821
 5135SOL    HW116846   2.878   1.825   7.873  0.6931 -1.9173 -1.1028
 5135SOL    HW216847   2.798   1.885   7.759  0.2007  0.5127  0.4533
 5136SOL     OW16848   1.404   7.721   4.626  0.2735  0.0406 -0.4175
 5136SOL    HW116849   1.477   7.757   4.576  1.2428 -1.8431 -0.4391
 5136SOL    HW216850   1.435   7.723   4.717 -0.0374  0.1048 -0.3114
 5137SOL     OW16851   5.674   6.719  10.545 -0.9124 -0.1076  0.2112
 5137SOL    HW116852   5.700   6.633  10.579 -2.4142 -0.2675  1.0344
 5137SOL    HW216853   5.745   6.777  10.571 -0.6849 -0.7835  1.1476
 5138SOL     OW16854   3.994   5.106   1.485  0.2349  0.1639 -0.4667
 5138SOL    HW116855   3.951   5.162   1.420 -0.5454 -2.4925 -2.4227
 5138SOL    HW216856   3.959   5.137   1.569 -2.1002  1.0008 -1.6355
 5139SOL     OW16857   1.354   5.036  12.313 -0.5819 -0.0917  0.1685
 5139SOL    HW116858   1.423   4.988  12.268 -1.6732 -0.8662 -0.7149
 5139SOL    HW216859   1.344   4.990  12.397 -1.6357 -1.4602 -0.6787
 5140SOL     OW16860   4.527   4.482   3.101  0.1002  0.4528 -0.1506
 5140SOL    HW116861   4.482   4.558   3.065 -1.1239 -0.0800  0.2372
 5140SOL    HW216862   4.510   4.412   3.038  1.2832  0.4869 -0.5430
 5141SOL     OW16863   2.218   5.016   2.962 -0.9072 -0.2675  0.4792
 5141SOL    HW116864   2.129   4.982   2.969 -1.3513  0.6673 -0.3983
 5141SOL    HW216865   2.219   5.093   3.019 -1.2374  0.8052 -0.9001
 5142SOL     OW16866   7.614   3.542   4.044 -0.5512  0.2136 -0.2150
 5142SOL    HW116867   7.675   3.525   4.116 -1.4992 -1.9484  0.1626
 5142SOL    HW216868   7.652   3.617   3.998  2.4142 -1.0112 -0.0071
 5143SOL     OW16869   0.896   4.439   1.329 -0.1641 -0.2433 -0.5963
 5143SOL    HW116870   0.814   4.463   1.285 -0.5710  0.0175  0.2897
 5143SOL    HW216871   0.942   4.384   1.265 -0.4004  0.7361 -1.6374
 5144SOL     OW16872   0.570   5.299   3.572  0.1603  0.5351  0.0700
 5144SOL    HW116873   0.653   5.347   3.562  0.0663  0.9476  1.0854
 5144SOL    HW216874   0.503   5.365   3.553  0.0693  0.0802 -1.2016
 5145SOL     OW16875   4.981   2.614   4.283  0.3809 -0.6287 -0.3867
 5145SOL    HW116876   5.048   2.603   4.216 -1.1866  0.1917 -2.1640
 5145SOL    HW216877   4.901   2.633   4.235 -0.7172  0.5021  1.7371
 5146SOL     OW16878   6.813   5.124  12.328 -0.5498 -0.1570 -0.3924
 5146SOL    HW116879   6.907   5.136  12.313 -0.5225 -1.4081 -1.4137
 5146SOL    HW216880   6.776   5.113  12.240 -1.6132  0.0089  0.0190
 5147SOL     OW16881   5.005   2.881   0.963 -0.3409  0.6644 -0.0841
 5147SOL    HW116882   5.051   2.882   0.879  2.8381  0.3318  1.5398
 5147SOL    HW216883   4.990   2.973   0.983 -0.9224  0.7565 -0.8592
 5148SOL     OW16884   3.052   2.859   0.905  0.2439 -0.4090  0.0818
 5148SOL    HW116885   3.015   2.812   0.979 -1.5366 -0.5873 -0.8571
 5148SOL    HW216886   3.122   2.912   0.943 -0.3788 -0.7588  1.8214
 5149SOL     OW16887   2.142   3.460   3.399  0.8703  0.3548 -0.2182
 5149SOL    HW116888   2.103   3.468   3.486  1.9009  1.4495  0.1727
 5149SOL    HW216889   2.130   3.547   3.360 -2.2910 -0.8930 -2.4254
 5150SOL     OW16890   4.203   2.856   2.187  0.0539  0.6485  0.0229
 5150SOL    HW116891   4.266   2.836   2.256 -0.4396 -0.3308  0.2026
 5150SOL    HW216892   4.246   2.830   2.106 -0.0949  0.0205  0.1419
 5151SOL     OW16893   7.241   4.371  11.678 -0.1309  0.6745 -0.1523
 5151SOL    HW116894   7.156   4.405  11.650 -0.9540 -0.2614  1.1475
 5151SOL    HW216895   7.227   4.340  11.767  1.3310 -0.3616 -0.2459
 5152SOL     OW16896   1.270   5.265  11.721  0.5303  0.4336 -0.0375
 5152SOL    HW116897   1.311   5.248  11.805 -2.3403  0.2327  1.4460
 5152SOL    HW216898   1.281   5.359  11.707 -0.2671  0.7621  1.3643
 5153SOL     OW16899   7.716   4.310   7.542  0.2255 -0.3520  0.1583
 5153SOL    HW116900   7.677   4.235   7.496  0.0072 -0.3539  0.3431
 5153SOL    HW216901   7.793   4.332   7.491  0.2562 -0.6656  0.0658
 5154SOL     OW16902   4.545   6.786   6.039  0.2818 -0.1185  0.0624
 5154SOL    HW116903   4.457   6.748   6.033  0.1411 -0.0106  1.1686
 5154SOL    HW216904   4.540   6.868   5.989 -0.0868 -0.3804 -0.3365
 5155SOL     OW16905   0.443   1.916  12.098 -0.2378  0.1692  0.1483
 5155SOL    HW116906   0.510   1.977  12.127 -0.4863 -0.1171  1.3527
 5155SOL    HW216907   0.432   1.856  12.171 -0.0556 -1.2863 -0.9726
 5156SOL     OW16908   1.970   2.905   2.763  0.1683  0.1151 -0.1632
 5156SOL    HW116909   2.000   2.966   2.830 -0.3880 -1.2435  1.3844
 5156SOL    HW216910   2.006   2.820   2.789 -2.6354 -1.0559  0.2636
 5157SOL     OW16911   5.215   4.593  12.185 -0.0669  0.4021  0.1927
 5157SOL    HW116912   5.289   4.633  12.229 -0.3062  0.8415  0.2015
 5157SOL    HW216913   5.250   4.513  12.146  0.5364  0.8845 -0.2700
 5158SOL     OW16914   5.871   2.092   2.639 -0.0709  0.3793  0.0898
 5158SOL    HW116915   5.807   2.048   2.583  0.7064 -0.2423 -0.3312
 5158SOL    HW216916   5.952   2.044   2.624  0.6695  1.5926  0.0672
 5159SOL     OW16917   4.120   7.598   0.083 -0.3590 -0.3261  0.1186
 5159SOL    HW116918   4.120   7.505   0.105 -0.5235 -0.3721 -0.0729
 5159SOL    HW216919   4.035   7.630   0.115 -1.0450 -0.6106 -1.3524
 5160SOL     OW16920   2.132   1.612   2.237  0.3832 -0.1735  0.2036
 5160SOL    HW116921   2.153   1.706   2.240  1.1505 -0.3588  0.8353
 5160SOL    HW216922   2.078   1.603   2.159  0.7939  0.7019 -0.2046
 5161SOL     OW16923   3.663   0.690   4.620 -0.5481  0.5862  0.4541
 5161SOL    HW116924   3.741   0.712   4.569  0.2737 -0.1338  1.3647
 5161SOL    HW216925   3.601   0.761   4.602  1.2821  2.6186  1.7712
 5162SOL     OW16926   2.018   3.728   2.888 -0.4490  0.2002 -0.5805
 5162SOL    HW116927   1.985   3.817   2.895 -0.8464  0.0572 -0.6064
 5162SOL    HW216928   1.973   3.692   2.812 -0.4619 -0.0940 -0.4353
 5163SOL     OW16929   5.860   5.918   8.342 -0.0746 -0.5116 -0.4726
 5163SOL    HW116930   5.859   5.927   8.437  0.4450  2.9985 -0.6773
 5163SOL    HW216931   5.940   5.868   8.324  0.9192  0.4941  0.8970
 5164SOL     OW16932   0.973   4.000   6.271  0.4574 -0.0928 -0.3301
 5164SOL    HW116933   0.986   4.013   6.177  0.3332  2.0534 -0.0913
 5164SOL    HW216934   1.061   3.994   6.306  0.5540  1.0059 -0.3640
 5165SOL     OW16935   5.141   3.232   5.219  0.4978 -0.0385  0.8851
 5165SOL    HW116936   5.169   3.204   5.132  1.7461  1.2124  0.8456
 5165SOL    HW216937   5.129   3.151   5.268 -3.4445 -1.0362 -1.2874
 5166SOL     OW16938   2.665   0.826   2.439  0.1104  0.3277 -0.1208
 5166SOL    HW116939   2.684   0.830   2.345 -1.8770  0.1236 -0.5844
 5166SOL    HW216940   2.569   0.822   2.443  0.1347  0.9650  1.9489
 5167SOL     OW16941   6.711   3.700   8.191  0.1736  0.4744  0.2347
 5167SOL    HW116942   6.763   3.778   8.169  1.5833 -0.6289 -0.5424
 5167SOL    HW216943   6.625   3.734   8.213  0.1449  2.1202 -2.0555
 5168SOL     OW16944   4.973   2.381   9.423 -0.3323  0.2982 -0.1509
 5168SOL    HW116945   4.908   2.445   9.393  0.2339  0.8991 -0.1022
 5168SOL    HW216946   4.960   2.376   9.518 -0.4471  0.2625 -0.1691
 5169SOL     OW16947   4.147   5.248   0.853  0.3981 -0.1752 -0.8341
 5169SOL    HW116948   4.095   5.327   0.835 -0.0106 -0.1744  0.3031
 5169SOL    HW216949   4.111   5.214   0.934  1.3531 -0.8913 -0.7061
 5170SOL     OW16950   0.192   3.525   1.300  0.1249 -0.1479  0.2254
 5170SOL    HW116951   0.225   3.461   1.237 -3.5882 -0.4768 -1.6452
 5170SOL    HW216952   0.173   3.473   1.378  0.3604 -0.6595 -0.0511
 5171SOL     OW16953   7.303   0.092   6.553  0.0516 -0.4679  0.2389
 5171SOL    HW116954   7.391   0.056   6.562  1.0875  1.4626 -1.3959
 5171SOL    HW216955   7.300   0.165   6.615 -0.4047 -0.5022  0.2657
 5172SOL     OW16956   6.808   7.803   0.880 -0.0994 -0.1041  0.1608
 5172SOL    HW116957   6.777   7.869   0.942  0.5556  1.0593 -0.7040
 5172SOL    HW216958   6.893   7.775   0.915  0.2722  0.5553 -0.1767
 5173SOL     OW16959   2.291   7.712   9.005 -0.2177  0.2105  0.0934
 5173SOL    HW116960   2.258   7.760   9.081  0.6516 -0.5393  0.9786
 5173SOL    HW216961   2.374   7.755   8.984  0.8326 -1.1567  1.2257
 5174SOL     OW16962   2.610   0.218   2.420  0.6480  0.1975 -1.1636
 5174SOL    HW116963   2.532   0.269   2.441  0.2712 -0.4875 -0.8590
 5174SOL    HW216964   2.631   0.172   2.501  0.3044 -1.0145 -1.7446
 5175SOL     OW16965   4.279   1.002   2.436  0.0281  0.2779  0.1865
 5175SOL    HW116966   4.351   0.940   2.425  0.2449  0.7921 -1.5931
 5175SOL    HW216967   4.291   1.038   2.524  1.9074  0.2935 -0.0315
 5176SOL     OW16968   0.164   6.172  11.145 -0.3884  0.2227 -0.1119
 5176SOL    HW116969   0.236   6.161  11.208  0.5202  0.6540 -1.0481
 5176SOL    HW216970   0.085   6.154  11.196  0.4846 -2.7359  0.3756
 5177SOL     OW16971   4.346   5.738   8.255 -0.3882  0.2009 -0.4202
 5177SOL    HW116972   4.420   5.735   8.315 -1.3058 -1.4365  0.6857
 5177SOL    HW216973   4.385   5.757   8.170  1.1605  0.5197  0.3265
 5178SOL     OW16974   4.856   0.835  11.007  0.6966 -0.0374 -0.1765
 5178SOL    HW116975   4.762   0.837  11.020  0.8023  1.2678  0.5096
 5178SOL    HW216976   4.882   0.927  11.001  1.8730 -0.3857 -0.8107
 5179SOL     OW16977   1.575   7.815   9.334  0.1644 -0.1072 -0.2187
 5179SOL    HW116978   1.648   7.861   9.377  0.3216 -0.9086  0.3988
 5179SOL    HW216979   1.528   7.884   9.287  0.5117  0.6538  0.5156
 5180SOL     OW16980   2.839   1.595   8.412  0.2475  0.4544 -0.4165
 5180SOL    HW116981   2.912   1.618   8.469 -0.0535  1.8459 -0.5748
 5180SOL    HW216982   2.762   1.631   8.455 -0.3282 -0.7197 -0.4186
 5181SOL     OW16983   4.898   7.519   8.672  0.3835 -0.0333  0.2059
 5181SOL    HW116984   4.813   7.511   8.629 -0.1920 -1.7789  1.5197
 5181SOL    HW216985   4.878   7.560   8.757  1.1553  1.2503 -0.2036
 5182SOL     OW16986   3.174   6.275  12.293 -0.2521 -0.2547  0.2762
 5182SOL    HW116987   3.146   6.246  12.380 -0.8573 -0.0550  0.1487
 5182SOL    HW216988   3.115   6.231  12.232 -0.2752  0.1552  0.0009
 5183SOL     OW16989   7.340   2.486   3.515 -0.1145 -0.1764 -0.2190
 5183SOL    HW116990   7.362   2.529   3.432 -1.1291  1.3078  0.2449
 5183SOL    HW216991   7.389   2.404   3.513  0.1405 -0.0242 -2.1420
 5184SOL     OW16992   2.301   7.412  10.551  0.1324 -0.7255  0.1832
 5184SOL    HW116993   2.216   7.414  10.595 -0.6630 -0.3576 -1.2944
 5184SOL    HW216994   2.304   7.495  10.503  0.7856 -1.2908 -0.7590
 5185SOL     OW16995   6.008   6.432   8.315  0.2750 -0.2178 -0.3057
 5185SOL    HW116996   6.101   6.432   8.338  0.7440  0.0668 -2.0677
 5185SOL    HW216997   6.006   6.412   8.222 -1.4268  0.1743 -0.3935
 5186SOL     OW16998   6.859   0.133   8.389  0.2342  0.1885  0.0772
 5186SOL    HW116999   6.893   0.046   8.366 -0.6747 -0.3973  0.8721
 5186SOL    HW217000   6.764   0.123   8.387  0.1043  1.4201 -0.6923
 5187SOL     OW17001   4.154   3.110   3.103 -0.4592 -0.2484  0.7586
 5187SOL    HW117002   4.081   3.084   3.160  0.2989 -2.2521  0.8677
 5187SOL    HW217003   4.211   3.034   3.100  0.7489  0.6601 -0.7797
 5188SOL     OW17004   2.734   6.847  11.438  0.4632  0.2194  0.4852
 5188SOL    HW117005   2.644   6.815  11.436  0.1861  1.0295 -0.5853
 5188SOL    HW217006   2.750   6.868  11.530 -0.8079  1.0899  0.5246
 5189SOL     OW17007   1.725   0.127  11.922 -0.2298 -0.2401  0.3403
 5189SOL    HW117008   1.695   0.186  11.853  0.7392  0.8034  0.8004
 5189SOL    HW217009   1.664   0.052  11.916 -1.3113  0.6564 -0.4181
 5190SOL     OW17010   7.306   4.768   3.532  0.7512  0.2902 -0.9639
 5190SOL    HW117011   7.328   4.842   3.589  0.3428  1.3281 -2.0948
 5190SOL    HW217012   7.211   4.757   3.543  0.4530  1.2489 -2.2294
 5191SOL     OW17013   5.647   6.535   6.452 -0.3360 -0.1092 -0.1444
 5191SOL    HW117014   5.592   6.600   6.496  0.9254  0.1085  1.1727
 5191SOL    HW217015   5.736   6.559   6.475  0.2749 -1.1745 -1.2450
 5192SOL     OW17016   5.292   6.029   5.567 -0.1838 -0.4824 -0.2327
 5192SOL    HW117017   5.354   5.994   5.631  0.5394  0.6897 -0.2666
 5192SOL    HW217018   5.242   6.095   5.614 -1.2196 -1.1920 -0.2949
 5193SOL     OW17019   0.112   6.652   9.824  0.3848 -0.1770 -0.4101
 5193SOL    HW117020   0.070   6.679   9.905 -0.3358  0.2427 -0.9106
 5193SOL    HW217021   0.130   6.734   9.778  0.6880 -0.4125 -0.7207
 5194SOL     OW17022   6.659   7.824   1.215  0.5625  0.0246  0.0103
 5194SOL    HW117023   6.735   7.832   1.273  0.6488  0.6698 -0.1825
 5194SOL    HW217024   6.687   7.866   1.134  0.1135 -0.0421 -0.1802
 5195SOL     OW17025   3.959   5.161  10.953  0.3361 -0.5189  0.2004
 5195SOL    HW117026   3.969   5.103  10.878 -0.7235  0.2035 -0.5264
 5195SOL    HW217027   3.877   5.132  10.995 -0.2616  0.4894 -0.2368
 5196SOL     OW17028   6.145   1.779   3.186 -0.1240  0.0585 -0.0232
 5196SOL    HW117029   6.173   1.799   3.096 -0.4885  1.0072  0.0718
 5196SOL    HW217030   6.054   1.807   3.190 -0.5327 -1.2478  0.2499
 5197SOL     OW17031   7.211   3.049   7.939 -0.4127 -0.0352  0.0881
 5197SOL    HW117032   7.300   3.052   7.976 -0.2676  0.4197 -0.2834
 5197SOL    HW217033   7.186   2.957   7.943 -0.1948 -0.0653  0.8382
 5198SOL     OW17034   1.740   7.442   3.960  0.3586  0.1185  0.1431
 5198SOL    HW117035   1.755   7.526   4.002 -0.9890  1.0623 -1.1604
 5198SOL    HW217036   1.675   7.398   4.016  0.1476  0.4733  0.1819
 5199SOL     OW17037   0.089   3.632   1.776  0.2943 -0.1256  0.1114
 5199SOL    HW117038   0.050   3.572   1.711 -1.3170  1.2743 -0.2831
 5199SOL    HW217039   0.136   3.574   1.837  0.3283 -1.6223 -1.2701
 5200SOL     OW17040   6.758   6.962  11.016  0.5764  0.5520 -0.0519
 5200SOL    HW117041   6.839   6.933  11.059 -0.9500 -0.7296  2.1632
 5200SOL    HW217042   6.710   7.009  11.085 -0.5122  1.4441 -1.3695
 5201SOL     OW17043   5.573   6.177   4.803 -0.0964 -0.4355  0.2089
 5201SOL    HW117044   5.569   6.107   4.868  2.0065 -1.0925 -0.2940
 5201SOL    HW217045   5.640   6.237   4.836  0.6273 -0.5073 -1.0498
 5202SOL     OW17046   7.548   7.629   5.228  0.3607 -0.9584 -0.1835
 5202SOL    HW117047   7.522   7.618   5.319 -1.7333 -1.6390 -0.8039
 5202SOL    HW217048   7.483   7.579   5.178 -0.2163  1.5876 -2.2035
 5203SOL     OW17049   7.027   2.151   7.623 -0.4101  0.0393 -0.4923
 5203SOL    HW117050   7.058   2.133   7.712  0.5467  2.1110 -0.3600
 5203SOL    HW217051   6.962   2.221   7.634  0.8459  1.4235 -1.5357
 5204SOL     OW17052   2.113   5.830   4.882 -0.1132  0.2441 -0.4956
 5204SOL    HW117053   2.095   5.921   4.859 -0.2222  0.3637  0.0405
 5204SOL    HW217054   2.028   5.794   4.909 -0.0906 -0.0495 -0.8054
 5205SOL     OW17055   3.243   2.681   0.537  0.3234  0.4047 -0.3511
 5205SOL    HW117056   3.255   2.647   0.626 -1.9637  0.2217 -0.0727
 5205SOL    HW217057   3.235   2.602   0.482 -1.0493  0.4702 -0.2781
 5206SOL     OW17058   6.959   4.328  11.932 -0.0249 -0.4527 -0.0304
 5206SOL    HW117059   7.055   4.333  11.934 -0.0772  0.4723  0.6150
 5206SOL    HW217060   6.940   4.236  11.947  0.7443 -0.4130  1.3722
 5207SOL     OW17061   3.465   1.563   9.642  0.3545  0.6673 -0.3731
 5207SOL    HW117062   3.467   1.492   9.578 -1.6348  0.6215 -0.4419
 5207SOL    HW217063   3.491   1.641   9.593 -1.1058  0.6256 -1.2769
 5208SOL     OW17064   7.833   7.943  10.188 -0.2445 -0.3606  0.1788
 5208SOL    HW117065   7.923   7.911  10.194  0.5309  1.0574 -2.5891
 5208SOL    HW217066   7.780   7.863  10.187  1.0626 -1.2704  0.5064
 5209SOL     OW17067   4.954   7.340  10.662 -0.2818 -0.2794 -1.0289
 5209SOL    HW117068   4.945   7.322  10.756  0.7943 -0.2996 -0.9194
 5209SOL    HW217069   4.984   7.258  10.625  1.2782  0.2753 -1.0626
 5210SOL     OW17070   7.530   7.002   4.722 -0.1754 -0.3234  0.2472
 5210SOL    HW117071   7.548   7.033   4.810 -1.2571 -2.6104  1.3597
 5210SOL    HW217072   7.610   6.957   4.695  0.8321  1.9035 -0.7594
 5211SOL     OW17073   6.117   2.295   1.678  0.1677  0.2691 -0.6910
 5211SOL    HW117074   6.057   2.238   1.726  2.2111 -0.5852  1.0130
 5211SOL    HW217075   6.095   2.383   1.708  0.5059 -0.1361  0.8331
 5212SOL     OW17076   1.558   5.291   2.060  0.3002 -0.7411  0.5904
 5212SOL    HW117077   1.615   5.365   2.039 -0.6888 -0.1894 -0.2333
 5212SOL    HW217078   1.534   5.304   2.152 -0.1892  0.1977  0.3430
 5213SOL     OW17079   2.934   6.702   2.181 -0.0435 -0.1454 -0.0508
 5213SOL    HW117080   2.858   6.645   2.169  0.5056 -0.5279 -2.0860
 5213SOL    HW217081   2.925   6.769   2.112  0.5950  0.8009  0.7530
 5214SOL     OW17082   5.391   3.950   2.731 -0.2173  0.0378 -0.0083
 5214SOL    HW117083   5.483   3.965   2.751 -0.2708 -0.8887  1.0575
 5214SOL    HW217084   5.375   3.999   2.651  0.8011  1.4870  0.6474
 5215SOL     OW17085   7.817   5.019   2.936 -0.0789 -0.0553  0.8642
 5215SOL    HW117086   7.727   4.990   2.922  0.1385 -0.0619 -0.6561
 5215SOL    HW217087   7.847   4.967   3.010 -1.3300 -0.0266  1.4245
 5216SOL     OW17088   3.916   7.854   9.217 -0.4924 -0.0856 -0.3206
 5216SOL    HW117089   4.007   7.846   9.187 -0.5565 -2.5894 -0.0942
 5216SOL    HW217090   3.867   7.880   9.139  0.3534  0.9611 -0.5247
 5217SOL     OW17091   5.462   6.344  10.556  0.2274  0.0698 -0.4926
 5217SOL    HW117092   5.419   6.300  10.629  0.9401 -0.6523 -0.4940
 5217SOL    HW217093   5.416   6.314  10.478 -0.1298  0.3521 -0.3928
 5218SOL     OW17094   6.632   5.708   3.067 -0.2552  0.1765 -0.0987
 5218SOL    HW117095   6.703   5.739   3.011 -0.0337  1.1972  0.7189
 5218SOL    HW217096   6.559   5.766   3.048  0.4410  1.9361  2.1178
 5219SOL     OW17097   1.939   2.200   7.621 -0.0109 -0.1659 -0.5934
 5219SOL    HW117098   2.008   2.219   7.684 -0.8578 -0.4235  0.4511
 5219SOL    HW217099   1.883   2.278   7.621 -0.8111 -0.7111  0.0879
 5220SOL     OW17100   2.610   1.110   8.910  0.2385 -0.2559 -0.5504
 5220SOL    HW117101   2.569   1.171   8.849  0.1056 -1.2775 -1.5113
 5220SOL    HW217102   2.576   1.024   8.885  0.4415 -0.7412  0.7540
 5221SOL     OW17103   3.680   1.264  11.559  0.1756  0.1405 -0.5228
 5221SOL    HW117104   3.708   1.328  11.624  0.4340 -0.4709 -0.0212
 5221SOL    HW217105   3.588   1.286  11.544  0.2011  0.4991 -0.2013
 5222SOL     OW17106   0.581   3.442   9.611  0.2481  0.0463 -0.0605
 5222SOL    HW117107   0.514   3.498   9.573 -0.5483 -1.0301 -0.3029
 5222SOL    HW217108   0.661   3.464   9.564 -0.2137  0.4274 -0.6793
 5223SOL     OW17109   5.795   7.097   4.859 -0.2745 -0.0715 -0.1342
 5223SOL    HW117110   5.731   7.146   4.808 -1.0269 -0.6971  0.1976
 5223SOL    HW217111   5.750   7.016   4.883  0.3366 -0.1262  0.8594
 5224SOL     OW17112   2.908   0.253  11.537 -0.2505 -0.2725  0.4220
 5224SOL    HW117113   2.912   0.197  11.614 -1.0105 -2.2973 -0.9226
 5224SOL    HW217114   2.821   0.294  11.541 -0.2866 -0.3728  0.6399
 5225SOL     OW17115   0.497   4.760   5.740  0.2101  0.4271  0.1786
 5225SOL    HW117116   0.503   4.810   5.822 -1.0892  0.2060  0.4278
 5225SOL    HW217117   0.500   4.669   5.768 -1.4947  0.3319  0.1167
 5226SOL     OW17118   1.052   6.367   8.303  0.3258 -0.6269 -0.4473
 5226SOL    HW117119   1.055   6.352   8.208 -0.6685 -0.0183 -0.5833
 5226SOL    HW217120   1.136   6.408   8.322 -0.0210  0.5412 -1.3107
 5227SOL     OW17121   3.407   5.822   7.489  0.0335 -0.0737  0.2828
 5227SOL    HW117122   3.348   5.874   7.435 -0.2450  0.4099  1.0391
 5227SOL    HW217123   3.349   5.766   7.540  0.1934  0.5897  1.2191
 5228SOL     OW17124   2.973   7.396  10.575  0.0074  0.0127  0.2758
 5228SOL    HW117125   3.065   7.416  10.561  0.3747 -0.5277  1.7326
 5228SOL    HW217126   2.949   7.444  10.654 -0.0111 -2.4809  1.8655
 5229SOL     OW17127   7.375   2.961   2.097 -0.5544  0.0663  0.6382
 5229SOL    HW117128   7.396   2.956   2.003 -0.6644 -0.2063  0.6244
 5229SOL    HW217129   7.449   2.917   2.140 -1.0166 -0.7800  0.5984
 5230SOL     OW17130   1.640   1.934   5.044 -0.2686  0.1170 -0.0722
 5230SOL    HW117131   1.680   2.015   5.074 -0.1117  0.2854 -0.7201
 5230SOL    HW217132   1.638   1.878   5.121  2.9343 -0.6100 -0.4088
 5231SOL     OW17133   5.922   7.783  10.969 -0.3453  0.3342  0.1750
 5231SOL    HW117134   6.006   7.808  11.007  0.5298 -0.0527 -1.4008
 5231SOL    HW217135   5.878   7.865  10.951  0.7243  0.6546 -1.1385
 5232SOL     OW17136   1.573   6.582   8.863 -0.0384  0.0358 -0.2044
 5232SOL    HW117137   1.532   6.504   8.825  2.9596 -1.4248 -0.7795
 5232SOL    HW217138   1.620   6.549   8.940 -0.6022  1.7762  0.9576
 5233SOL     OW17139   0.635   7.657   9.359 -0.7274 -0.2486 -0.4517
 5233SOL    HW117140   0.636   7.710   9.440  0.1142  0.3559 -0.8393
 5233SOL    HW217141   0.562   7.693   9.308 -0.0749  0.6609 -0.7739
 5234SOL     OW17142   3.434   6.334   1.342  0.2953  0.0744  0.1460
 5234SOL    HW117143   3.381   6.413   1.349 -0.4398 -0.3998  0.0360
 5234SOL    HW217144   3.523   6.366   1.323 -0.1159  0.8340 -0.5563
 5235SOL     OW17145   3.135   1.317   7.660 -0.1965 -0.0269  0.1035
 5235SOL    HW117146   3.220   1.360   7.652  0.8523 -2.2846 -2.1090
 5235SOL    HW217147   3.147   1.251   7.728 -0.3947  0.0512  0.2175
 5236SOL     OW17148   2.406   0.561   3.534  0.1264  0.1392 -0.1561
 5236SOL    HW117149   2.432   0.473   3.504 -1.3236  0.0991 -1.4292
 5236SOL    HW217150   2.480   0.617   3.511  1.1493 -0.7578  0.8313
 5237SOL     OW17151   7.188   2.867   4.198 -0.1642 -0.6728 -0.1075
 5237SOL    HW117152   7.106   2.857   4.246 -0.3871 -0.1000 -0.3563
 5237SOL    HW217153   7.175   2.946   4.145  2.2256  2.2464  3.2248
 5238SOL     OW17154   5.081   1.972   0.996  0.2194 -0.1672  0.1404
 5238SOL    HW117155   5.088   2.009   1.084  2.4349 -0.2161  0.0574
 5238SOL    HW217156   5.064   1.879   1.011  1.8034 -0.4203  0.6130
 5239SOL     OW17157   0.421   2.637   4.602  0.0022 -0.0993 -0.2476
 5239SOL    HW117158   0.416   2.732   4.608  0.1103 -0.0523 -0.8472
 5239SOL    HW217159   0.496   2.613   4.656 -0.2753  0.1164  0.2381
 5240SOL     OW17160   1.183   5.137   1.469 -0.2708 -0.0810 -0.1841
 5240SOL    HW117161   1.268   5.177   1.487 -0.7986  1.2736 -0.5393
 5240SOL    HW217162   1.175   5.141   1.374 -0.8415  0.0512 -0.1323
 5241SOL     OW17163   2.212   0.751   0.361  0.3568  0.4641 -0.8632
 5241SOL    HW117164   2.279   0.805   0.403  0.0649  0.5491 -0.4921
 5241SOL    HW217165   2.137   0.809   0.353  0.1250  0.1892 -0.6998
 5242SOL     OW17166   1.784   6.901   1.570 -0.0808 -0.7766  0.5918
 5242SOL    HW117167   1.874   6.883   1.542 -0.2896 -0.1340 -0.5759
 5242SOL    HW217168   1.790   6.916   1.664  1.2390  0.4347  0.3414
 5243SOL     OW17169   6.318   5.319   3.096 -0.1834 -0.0103  0.1312
 5243SOL    HW117170   6.393   5.349   3.149  0.2698 -0.1147 -0.4445
 5243SOL    HW217171   6.318   5.377   3.020 -2.3805  1.8344  1.4057
 5244SOL     OW17172   4.487   4.787   4.335  0.8632 -0.0240 -0.8472
 5244SOL    HW117173   4.570   4.834   4.328  0.9814 -0.0736  0.1319
 5244SOL    HW217174   4.465   4.791   4.428 -0.1644 -0.1275 -1.0736
 5245SOL     OW17175   4.698   5.648   6.250 -0.0748  0.7490 -0.1981
 5245SOL    HW117176   4.677   5.738   6.274 -0.5380  0.6623 -0.2748
 5245SOL    HW217177   4.621   5.616   6.203  0.1593  0.3721 -0.3396
 5246SOL     OW17178   5.304   4.828   3.209 -0.4938 -0.2254  0.3795
 5246SOL    HW117179   5.285   4.869   3.124 -2.0125  1.9401  1.6621
 5246SOL    HW217180   5.398   4.839   3.221 -0.1824 -0.9137 -1.1532
 5247SOL     OW17181   6.470   7.460  10.033 -0.5457 -0.4421 -0.0377
 5247SOL    HW117182   6.496   7.383   9.982  2.8639  0.1422  0.6121
 5247SOL    HW217183   6.388   7.435  10.075 -1.8458 -2.0774 -3.2315
 5248SOL     OW17184   1.859   4.409   7.726 -0.1356  0.3422 -0.1455
 5248SOL    HW117185   1.892   4.321   7.707 -2.1928 -0.0881 -2.2546
 5248SOL    HW217186   1.874   4.421   7.820 -0.0313 -2.3711  0.2628
 5249SOL     OW17187   3.639   5.556   6.108 -0.3490  0.6919 -0.0251
 5249SOL    HW117188   3.546   5.564   6.128 -0.2321  0.7819  0.5095
 5249SOL    HW217189   3.670   5.647   6.103 -0.1877  0.6600  0.3231
 5250SOL     OW17190   0.847   4.767   6.707  0.0853 -0.1469 -0.0012
 5250SOL    HW117191   0.929   4.816   6.704 -1.0495  1.9665  1.2364
 5250SOL    HW217192   0.827   4.758   6.800 -0.9014 -1.0122 -0.2714
 5251SOL     OW17193   1.844   3.057   9.162  0.0030  0.1315  0.4550
 5251SOL    HW117194   1.938   3.043   9.163  0.0868  0.6824  0.7338
 5251SOL    HW217195   1.809   2.995   9.226  0.1490 -0.2462  0.1688
 5252SOL     OW17196   6.826   7.408   9.003  0.2121  0.5908  0.1673
 5252SOL    HW117197   6.775   7.465   8.945  0.2232  1.0411  0.6028
 5252SOL    HW217198   6.911   7.400   8.960 -0.0548  0.2289 -0.3123
 5253SOL     OW17199   3.985   5.159   0.422  0.3507 -0.3146  0.0558
 5253SOL    HW117200   3.982   5.222   0.350  0.9345 -0.8007 -0.4189
 5253SOL    HW217201   4.077   5.157   0.448  0.1998 -0.3893  0.5982
 5254SOL     OW17202   1.054   0.337   9.133  0.3897  0.1670  0.0033
 5254SOL    HW117203   0.992   0.409   9.120  1.9383  1.9178  1.6677
 5254SOL    HW217204   1.137   0.370   9.099  1.6810  0.1587  2.8868
 5255SOL     OW17205   5.235   4.221   5.052  0.0321  0.1102  0.4241
 5255SOL    HW117206   5.200   4.138   5.020  1.5352 -0.3278 -0.1660
 5255SOL    HW217207   5.330   4.211   5.044  0.2326  1.9117  0.3075
 5256SOL     OW17208   5.612   5.758   6.415  0.3843  0.2246 -0.0998
 5256SOL    HW117209   5.532   5.736   6.462  1.3478 -1.5016  0.7989
 5256SOL    HW217210   5.604   5.852   6.396 -2.3527 -0.1359 -1.0600
 5257SOL     OW17211   2.641   1.695   9.755 -0.0225 -0.3305 -0.0772
 5257SOL    HW117212   2.722   1.682   9.705 -0.6213 -1.5924 -0.7799
 5257SOL    HW217213   2.670   1.734   9.838  1.2815 -0.5436 -0.4073
 5258SOL     OW17214   2.196   1.041   2.817 -0.1939  0.0663  0.2519
 5258SOL    HW117215   2.236   1.107   2.874  0.6164  1.1019 -1.4260
 5258SOL    HW217216   2.121   1.009   2.866  0.5312  0.8092  1.9367
 5259SOL     OW17217   5.906   6.827  11.760  0.0014  0.2831 -0.6813
 5259SOL    HW117218   5.929   6.737  11.786 -1.3887 -0.1299 -0.7870
 5259SOL    HW217219   5.962   6.846  11.685  1.8654  0.3338  0.6633
 5260SOL     OW17220   3.556   2.030   2.148 -0.3779  0.1924 -0.1531
 5260SOL    HW117221   3.641   2.020   2.191 -0.4847  0.3194  0.0923
 5260SOL    HW217222   3.530   1.941   2.126 -0.1812  0.1525 -0.2309
 5261SOL     OW17223   6.889   5.679   0.124 -0.0922  0.0620 -0.3558
 5261SOL    HW117224   6.802   5.692   0.085 -0.4530 -0.4194  0.2477
 5261SOL    HW217225   6.878   5.709   0.214 -0.2105 -1.8197  0.3006
 5262SOL     OW17226   2.841   2.268  11.549  0.1438 -0.2024  0.1740
 5262SOL    HW117227   2.753   2.296  11.522 -0.0936 -0.7045  0.4120
 5262SOL    HW217228   2.825   2.201  11.616  0.7094  0.8600  1.4078
 5263SOL     OW17229   7.569   6.512   0.590  0.1812 -0.9735  0.2844
 5263SOL    HW117230   7.618   6.476   0.664 -1.1194  1.5950  2.5901
 5263SOL    HW217231   7.626   6.580   0.554 -0.1152 -0.6198  0.4738
 5264SOL     OW17232   1.678   4.088  12.101 -0.2041 -0.7405 -0.4228
 5264SOL    HW117233   1.722   4.135  12.171  1.4848 -0.0016 -1.8969
 5264SOL    HW217234   1.692   3.995  12.122 -0.8296 -0.5659  0.8468
 5265SOL     OW17235   0.115   4.308  11.731  0.6236 -0.2931 -0.0724
 5265SOL    HW117236   0.130   4.385  11.786  0.3140  1.3187 -2.1174
 5265SOL    HW217237   0.203   4.275  11.711  0.7896 -0.0342  0.2321
 5266SOL     OW17238   1.862   1.438  11.788  0.5592 -0.2137 -0.0781
 5266SOL    HW117239   1.766   1.439  11.791  0.4298 -3.3010  0.2669
 5266SOL    HW217240   1.883   1.438  11.694  0.2512  0.5834 -0.1552
 5267SOL     OW17241   1.508   3.461   9.262 -0.4574 -0.7547  0.0168
 5267SOL    HW117242   1.529   3.421   9.177 -1.0050 -2.4388  0.6393
 5267SOL    HW217243   1.547   3.402   9.327 -1.4414 -0.3838  0.9695
 5268SOL     OW17244   3.772   2.084   5.933  0.5201 -0.2310  0.0260
 5268SOL    HW117245   3.802   2.112   5.847  0.4407 -1.1032 -0.2991
 5268SOL    HW217246   3.762   2.165   5.983  2.4289  0.1801 -0.1710
 5269SOL     OW17247   4.746   3.296   7.538 -0.1115  0.1061 -0.6270
 5269SOL    HW117248   4.770   3.227   7.476 -0.2112  0.6805 -1.3100
 5269SOL    HW217249   4.826   3.349   7.547 -0.0408 -0.0808 -0.1178
 5270SOL     OW17250   5.938   4.805   7.528 -0.3781  0.4649  0.5399
 5270SOL    HW117251   5.921   4.711   7.533 -0.5627  0.4647 -0.1012
 5270SOL    HW217252   5.852   4.846   7.534 -0.2865  0.6031  0.9629
 5271SOL     OW17253   7.556   5.878   4.015 -0.4888  0.2682 -0.6100
 5271SOL    HW117254   7.569   5.972   4.026 -0.3992  0.1742  0.1223
 5271SOL    HW217255   7.478   5.871   3.960  0.4214  0.7824 -2.0418
 5272SOL     OW17256   1.197   0.248   9.723 -0.0011 -0.3742  0.1382
 5272SOL    HW117257   1.177   0.339   9.745  1.0514  0.2003 -1.1304
 5272SOL    HW217258   1.200   0.247   9.627 -1.9468 -2.1945  0.0184
 5273SOL     OW17259   7.266   1.173   1.387  0.1015 -0.2383 -0.0343
 5273SOL    HW117260   7.323   1.185   1.463 -2.3020  1.9730  1.6063
 5273SOL    HW217261   7.317   1.205   1.313  2.2431 -1.7177  0.6906
 5274SOL     OW17262   7.009   6.528  11.178 -0.7295  0.6052 -0.2092
 5274SOL    HW117263   6.986   6.494  11.265  0.9380 -0.5507 -0.1716
 5274SOL    HW217264   7.105   6.525  11.176 -0.7271 -2.2484 -3.1509
 5275SOL     OW17265   1.171   5.393   2.314  0.2007  0.6363  0.0543
 5275SOL    HW117266   1.218   5.383   2.397 -1.2401  0.3560  0.8731
 5275SOL    HW217267   1.185   5.310   2.268  0.0880  0.3714  0.5017
 5276SOL     OW17268   4.750   6.194   4.533 -0.4195 -0.5792 -0.1333
 5276SOL    HW117269   4.815   6.228   4.471 -0.6013 -0.0837 -0.0537
 5276SOL    HW217270   4.694   6.269   4.553 -1.0349 -1.0153 -0.2222
 5277SOL     OW17271   0.849   2.346   1.220  0.1323 -0.2239 -0.2340
 5277SOL    HW117272   0.778   2.300   1.264 -0.4048 -0.3532 -1.2112
 5277SOL    HW217273   0.888   2.280   1.162  1.4010 -0.3073  0.6682
 5278SOL     OW17274   1.121   7.087   1.629 -0.1785  0.0863  0.7182
 5278SOL    HW117275   1.089   7.132   1.707  2.8316  0.3420  1.9278
 5278SOL    HW217276   1.079   7.001   1.632 -3.4943  1.5370  0.1247
 5279SOL     OW17277   3.170   6.780   4.818  0.3070  0.1469  0.2801
 5279SOL    HW117278   3.116   6.701   4.822  0.2159  0.2497  1.7126
 5279SOL    HW217279   3.108   6.850   4.802  0.0819  0.1672  1.1492
 5280SOL     OW17280   7.515   7.275  10.854 -0.0924 -0.4739  0.1085
 5280SOL    HW117281   7.480   7.362  10.874 -0.6923 -0.6586 -0.1200
 5280SOL    HW217282   7.527   7.274  10.759  0.7081 -0.3513  0.2047
 5281SOL     OW17283   1.608   3.884   2.635 -0.0029 -0.3850  0.1568
 5281SOL    HW117284   1.617   3.806   2.691 -0.2282  0.2163  1.0594
 5281SOL    HW217285   1.516   3.910   2.646  0.4022  0.7794  0.9380
 5282SOL     OW17286   2.686   2.542  11.214 -0.8436 -0.2905 -0.1802
 5282SOL    HW117287   2.760   2.547  11.153 -1.0380 -0.0714 -0.4009
 5282SOL    HW217288   2.645   2.458  11.195  1.3095 -2.0227  2.2305
 5283SOL     OW17289   4.559   4.383   8.438 -0.5525  0.2457 -0.2564
 5283SOL    HW117290   4.557   4.442   8.363 -0.2421  1.6530  0.7931
 5283SOL    HW217291   4.636   4.328   8.423 -0.8703  0.0592 -1.2716
 5284SOL     OW17292   6.582   4.869   5.821  0.2425 -0.0946 -0.4790
 5284SOL    HW117293   6.624   4.875   5.735  0.9726 -0.1169 -0.1241
 5284SOL    HW217294   6.645   4.823   5.876 -0.0769  0.2316  0.1679
 5285SOL     OW17295   2.055   6.475   7.808  0.1044 -0.4719 -0.2572
 5285SOL    HW117296   2.052   6.420   7.730 -0.1751 -0.0374 -0.5570
 5285SOL    HW217297   2.030   6.416   7.880  0.7613 -0.9722 -0.4339
 5286SOL     OW17298   7.251   5.435   3.349  1.2602 -0.2408 -0.0800
 5286SOL    HW117299   7.193   5.398   3.415 -2.3879 -0.0292 -2.8163
 5286SOL    HW217300   7.302   5.502   3.395 -0.2031 -0.9049  2.6824
 5287SOL     OW17301   1.313   4.000  11.640 -0.6611 -0.5144  0.2301
 5287SOL    HW117302   1.395   4.049  11.648 -1.0893  0.4532 -0.9408
 5287SOL    HW217303   1.334   3.912  11.672  0.5032  0.0402  1.0655
 5288SOL     OW17304   5.761   5.664   4.934 -0.6957 -0.4864 -0.3332
 5288SOL    HW117305   5.754   5.669   4.839  0.1062 -0.4485 -0.3949
 5288SOL    HW217306   5.832   5.602   4.950 -0.6508 -0.2935  0.2414
 5289SOL     OW17307   7.579   1.436  11.766  0.0362 -0.4280 -0.1875
 5289SOL    HW117308   7.503   1.450  11.821  0.3347 -1.2357  0.4626
 5289SOL    HW217309   7.616   1.523  11.752 -0.9268 -0.0447 -0.4106
 5290SOL     OW17310   2.205   3.004   2.921 -0.1242 -0.4507  0.1456
 5290SOL    HW117311   2.276   2.993   2.984 -0.7629  0.0285  0.9776
 5290SOL    HW217312   2.131   3.035   2.973 -0.4920  0.5857 -0.9255
 5291SOL     OW17313   5.600   2.085  10.514  0.4390  0.1731 -0.1366
 5291SOL    HW117314   5.547   2.165  10.520  0.6874  0.4442 -1.3221
 5291SOL    HW217315   5.621   2.064  10.605  0.1992  1.3476  0.2141
 5292SOL     OW17316   6.731   5.479   0.724  0.0913  0.3120 -0.8813
 5292SOL    HW117317   6.704   5.566   0.752 -3.5608 -0.7882 -0.3825
 5292SOL    HW217318   6.676   5.460   0.648 -0.1413 -1.9589 -0.2272
 5293SOL     OW17319   3.060   6.872   0.820  0.9379 -0.1933  0.1723
 5293SOL    HW117320   3.100   6.891   0.904  0.3438 -0.6970  0.5727
 5293SOL    HW217321   3.123   6.905   0.756  0.2483  2.5495  0.7990
 5294SOL     OW17322   4.587   5.095   6.774 -0.1494  0.5911  0.0003
 5294SOL    HW117323   4.661   5.033   6.775  1.0804  1.9958 -0.1885
 5294SOL    HW217324   4.585   5.127   6.684 -0.1427  1.5225  0.3206
 5295SOL     OW17325   3.782   7.300   5.330 -0.1088  0.3403 -0.2368
 5295SOL    HW117326   3.722   7.266   5.263  0.5693 -1.4655  0.0213
 5295SOL    HW217327   3.732   7.367   5.375 -1.7256 -0.6550 -0.4639
 5296SOL     OW17328   5.084   2.546   2.585 -0.2892 -0.2722  0.5263
 5296SOL    HW117329   5.081   2.467   2.531 -0.0234  0.5195 -0.6874
 5296SOL    HW217330   5.131   2.519   2.663  0.9159 -1.0320 -0.4157
 5297SOL     OW17331   7.315   0.551   9.236  0.1704 -0.0168 -0.1511
 5297SOL    HW117332   7.267   0.621   9.279  0.2591 -0.6555  1.0262
 5297SOL    HW217333   7.383   0.527   9.299 -0.8207 -2.2130  0.1621
 5298SOL     OW17334   4.152   7.698   2.901  0.3542  0.3613  0.3589
 5298SOL    HW117335   4.208   7.757   2.951 -0.7863  1.2331  0.6509
 5298SOL    HW217336   4.210   7.625   2.877  1.4763  0.9834  1.0583
 5299SOL     OW17337   6.328   6.991  10.445 -0.2439 -0.7426 -0.6815
 5299SOL    HW117338   6.308   6.917  10.388  0.5170 -0.3303 -1.5181
 5299SOL    HW217339   6.244   7.034  10.459 -0.5122 -1.1192 -1.1096
 5300SOL     OW17340   3.886   6.773  10.312  0.7205 -0.1699  0.5298
 5300SOL    HW117341   3.793   6.749  10.304  0.7504  0.3036 -1.5959
 5300SOL    HW217342   3.904   6.764  10.406 -1.0895 -1.6452  0.7979
 5301SOL     OW17343   0.971   6.888   4.848  0.0929  0.3343 -0.1046
 5301SOL    HW117344   0.954   6.833   4.924  0.0063 -0.3235 -0.5901
 5301SOL    HW217345   1.064   6.906   4.852  0.1733 -0.0667 -0.0775
 5302SOL     OW17346   7.014   0.398   9.679 -0.2691 -0.0385  0.0774
 5302SOL    HW117347   7.085   0.343   9.646  0.4848  0.4338  0.8597
 5302SOL    HW217348   7.022   0.480   9.630  0.2235  0.2943  0.6921
 5303SOL     OW17349   7.759   0.837  11.256  0.5200 -0.3787 -0.0066
 5303SOL    HW117350   7.804   0.787  11.323 -2.2985 -2.0961  0.7742
 5303SOL    HW217351   7.684   0.877  11.301  0.4447  1.2524 -1.4576
 5304SOL     OW17352   3.288   3.350   0.163  0.1163  0.4189 -0.1994
 5304SOL    HW117353   3.373   3.352   0.119 -0.4732  0.1904 -1.3832
 5304SOL    HW217354   3.228   3.392   0.102 -0.7761 -0.1167  0.2862
 5305SOL     OW17355   3.833   5.366   5.744  0.1028  0.4429 -0.1444
 5305SOL    HW117356   3.920   5.357   5.706  0.5408 -0.9525  1.0860
 5305SOL    HW217357   3.781   5.298   5.702  0.7395 -1.4919  2.0196
 5306SOL     OW17358   6.111   2.717   6.993  0.2357 -0.4146  0.3054
 5306SOL    HW117359   6.104   2.786   6.927  0.5728 -0.7923 -0.1313
 5306SOL    HW217360   6.025   2.674   6.991  0.6215 -1.2015 -0.7709
 5307SOL     OW17361   6.400   7.407   5.878 -0.7603 -0.3717 -0.3806
 5307SOL    HW117362   6.438   7.402   5.790 -0.1444  0.1369 -0.1565
 5307SOL    HW217363   6.411   7.499   5.903 -0.9081 -0.5186  0.2402
 5308SOL     OW17364   3.778   5.671   5.181 -0.1878  0.7487 -0.1750
 5308SOL    HW117365   3.746   5.621   5.105  0.3266  0.8404 -0.4594
 5308SOL    HW217366   3.791   5.605   5.249 -0.3774  0.6228 -0.2599
 5309SOL     OW17367   1.737   6.320  11.175  0.0268 -0.0973  0.3027
 5309SOL    HW117368   1.663   6.281  11.222  0.8031 -1.4133  0.4959
 5309SOL    HW217369   1.758   6.255  11.107  0.1280  0.9042 -0.6481
 5310SOL     OW17370   1.572   4.189   1.153  0.0535  0.5419  0.0311
 5310SOL    HW117371   1.523   4.193   1.071  0.7476  1.8962 -0.3530
 5310SOL    HW217372   1.571   4.097   1.178 -2.2857  0.4728 -0.1807
 5311SOL     OW17373   0.075   1.380   7.554  0.2949 -0.1097  0.9512
 5311SOL    HW117374   0.052   1.349   7.641 -1.0969 -0.6398  0.4162
 5311SOL    HW217375   0.020   1.329   7.494  0.2936  1.1289 -0.1638
 5312SOL     OW17376   6.026   0.576   5.462  0.4355 -0.3860 -0.5918
 5312SOL    HW117377   6.015   0.490   5.503  0.6105 -0.0919  0.0820
 5312SOL    HW217378   5.951   0.627   5.494  0.4207 -0.2388 -0.8622
 5313SOL     OW17379   2.415   1.021   2.028 -0.3972  0.5564 -0.4286
 5313SOL    HW117380   2.504   1.054   2.014  0.0848  0.2758  1.5932
 5313SOL    HW217381   2.427   0.929   2.049 -1.0381  0.7439  0.8564
 5314SOL     OW17382   1.268   4.327   4.604 -0.0960  0.0088 -0.0739
 5314SOL    HW117383   1.235   4.267   4.537  2.1781 -0.9711 -0.4364
 5314SOL    HW217384   1.302   4.269   4.672 -1.6716  0.9862  1.6177
 5315SOL     OW17385   5.590   0.815   9.437  0.1019 -0.3815  0.9621
 5315SOL    HW117386   5.668   0.763   9.417  1.4845  1.5434  1.0342
 5315SOL    HW217387   5.549   0.830   9.352  1.4800  0.9867  0.4690
 5316SOL     OW17388   0.388   2.554   3.032  0.4685 -0.0678  0.3663
 5316SOL    HW117389   0.321   2.611   3.069 -0.2714 -1.0251  0.5620
 5316SOL    HW217390   0.366   2.467   3.066  3.2257 -0.0644  2.4042
 5317SOL     OW17391   3.952   2.268   0.738  0.6553 -0.1409 -0.3746
 5317SOL    HW117392   4.011   2.288   0.811  2.2116  0.9113 -1.8455
 5317SOL    HW217393   3.940   2.173   0.743 -0.2066  0.0252  1.8833
 5318SOL     OW17394   7.031   3.103   3.886  0.3483  0.0318 -0.2112
 5318SOL    HW117395   7.014   3.009   3.886 -0.2533  0.1271 -1.2181
 5318SOL    HW217396   7.078   3.120   3.805 -1.4190  0.8940 -1.1071
 5319SOL     OW17397   7.745   5.560   4.435 -0.0458 -0.0605 -0.2229
 5319SOL    HW117398   7.679   5.529   4.373 -0.2272  0.7321 -0.4372
 5319SOL    HW217399   7.786   5.634   4.390  0.9201 -0.4804 -0.0459
 5320SOL     OW17400   7.585   4.667   6.672  0.2332  0.4647 -0.3830
 5320SOL    HW117401   7.565   4.683   6.764 -0.4589 -0.2110 -0.4110
 5320SOL    HW217402   7.658   4.727   6.653  0.8386  0.1352  0.7812
 5321SOL     OW17403   6.413   2.181   3.928  0.2985 -0.4715  0.1468
 5321SOL    HW117404   6.490   2.148   3.973 -0.0334 -0.5448  0.6770
 5321SOL    HW217405   6.423   2.277   3.930  1.4651 -0.5164 -1.7615
 5322SOL     OW17406   4.779   0.160   3.058  0.1460 -0.2792  0.2822
 5322SOL    HW117407   4.751   0.251   3.051 -0.7647 -0.5424  0.4070
 5322SOL    HW217408   4.773   0.140   3.151 -0.4161 -0.7017  0.1552
 5323SOL     OW17409   7.038   2.405   3.193  0.3196  0.2058 -0.1610
 5323SOL    HW117410   7.001   2.492   3.178  0.1703 -0.1104 -1.7723
 5323SOL    HW217411   7.078   2.411   3.280  0.8021  2.0540 -0.4644
 5324SOL     OW17412   7.275   2.131   4.332  0.7453 -0.1675  0.1012
 5324SOL    HW117413   7.341   2.063   4.343  1.4414  0.7520  1.9789
 5324SOL    HW217414   7.305   2.181   4.255 -0.8716 -3.0519 -2.6589
 5325SOL     OW17415   0.024   0.537   2.105  0.1707 -0.4576 -0.1202
 5325SOL    HW117416   0.098   0.571   2.055 -0.0150  1.1233  0.6117
 5325SOL    HW217417   0.028   0.583   2.188 -0.5659 -1.7229  0.6492
 5326SOL     OW17418   5.005   2.806   0.492 -0.2841  0.0972  0.5429
 5326SOL    HW117419   5.043   2.837   0.410  0.3356 -2.2220 -0.1181
 5326SOL    HW217420   4.922   2.765   0.466 -0.0452 -0.7278  1.0549
 5327SOL     OW17421   5.079   3.740   4.521  0.0734 -0.2346 -0.2515
 5327SOL    HW117422   5.157   3.688   4.542  0.9173  2.1638  3.6506
 5327SOL    HW217423   5.114   3.818   4.477 -0.4051 -0.0646 -0.3328
 5328SOL     OW17424   6.169   5.990  12.347  0.1696  0.7205 -0.3267
 5328SOL    HW117425   6.096   5.986  12.286 -0.8640  1.2620  0.8174
 5328SOL    HW217426   6.155   5.917  12.407  0.3760  1.0119  0.0884
 5329SOL     OW17427   7.337   1.951   8.643 -0.1585 -0.4213 -0.1716
 5329SOL    HW117428   7.249   1.947   8.606 -0.2705  1.3640 -0.1863
 5329SOL    HW217429   7.331   1.902   8.725 -0.3927 -2.7791 -1.5291
 5330SOL     OW17430   5.411   5.579  10.083 -0.1642  0.1989 -0.2389
 5330SOL    HW117431   5.449   5.572   9.996 -0.9473 -1.5592 -0.4746
 5330SOL    HW217432   5.477   5.541  10.141 -0.9532 -1.6331 -0.4899
 5331SOL     OW17433   3.413   4.794  12.029 -0.3599  0.1505  0.3002
 5331SOL    HW117434   3.337   4.738  12.013  0.7700 -1.1185 -0.9528
 5331SOL    HW217435   3.468   4.783  11.951  1.3910  0.5414  1.4136
 5332SOL     OW17436   4.296   4.775  11.622 -0.6449 -0.1592 -0.2255
 5332SOL    HW117437   4.238   4.824  11.564  0.1334  1.7853  0.5782
 5332SOL    HW217438   4.311   4.833  11.696  0.7358 -1.4256  0.5360
 5333SOL     OW17439   5.706   1.293   8.730 -0.2585 -0.1773 -0.2556
 5333SOL    HW117440   5.715   1.206   8.770 -0.6236  0.0987  0.4332
 5333SOL    HW217441   5.782   1.342   8.761  0.2392 -0.4027 -1.0738
 5334SOL     OW17442   2.773   3.642   2.965  0.0074 -0.2361 -0.4225
 5334SOL    HW117443   2.725   3.723   2.950  1.0448  0.2850 -1.0713
 5334SOL    HW217444   2.760   3.591   2.885 -0.5991 -0.6987 -0.0373
 5335SOL     OW17445   6.181   5.801   1.555  0.3591  0.1410 -0.3559
 5335SOL    HW117446   6.177   5.742   1.630  0.4856  0.3120 -0.2142
 5335SOL    HW217447   6.271   5.791   1.522  1.5417  2.7674  1.7180
 5336SOL     OW17448   2.093   5.005  11.062  0.0461  0.3043 -0.3531
 5336SOL    HW117449   2.097   4.975  11.153  1.2795 -0.8697 -0.7610
 5336SOL    HW217450   2.178   5.047  11.047  0.9399 -1.8439 -1.6952
 5337SOL     OW17451   1.968   4.365   4.320  0.5974 -0.2566  0.2546
 5337SOL    HW117452   2.032   4.409   4.265  1.4103 -1.2035  0.4279
 5337SOL    HW217453   1.966   4.275   4.288 -0.1801 -0.3960  0.6700
 5338SOL     OW17454   2.330   3.211   9.990 -0.3983 -0.4640 -0.2721
 5338SOL    HW117455   2.357   3.302   9.979 -0.7501  0.2786  3.6863
 5338SOL    HW217456   2.389   3.175  10.057 -0.5461 -3.0621 -1.3932
 5339SOL     OW17457   3.228   6.965   5.610  0.8345 -0.0588  0.0946
 5339SOL    HW117458   3.135   6.948   5.624  1.2237 -1.5923  0.9965
 5339SOL    HW217459   3.268   6.951   5.695  1.9640  0.1720 -0.3798
 5340SOL     OW17460   4.395   3.995   5.818 -0.2331  0.2043  0.2483
 5340SOL    HW117461   4.367   3.966   5.731 -1.1039 -0.6558  0.8043
 5340SOL    HW217462   4.489   3.976   5.820 -0.2418  0.0677 -0.4396
 5341SOL     OW17463   1.850   6.335   0.521  0.5259 -0.6021  0.2941
 5341SOL    HW117464   1.821   6.297   0.438  0.2003 -0.4151  0.3200
 5341SOL    HW217465   1.827   6.428   0.514  2.0853 -0.2253 -0.1220
 5342SOL     OW17466   0.640   0.175  10.472  0.4493 -0.3533  0.4598
 5342SOL    HW117467   0.576   0.134  10.531 -0.8155 -0.7814 -1.1391
 5342SOL    HW217468   0.696   0.103  10.444  0.3769 -0.3523  0.3114
 5343SOL     OW17469   6.735   1.106   5.279  0.5526  0.3274 -0.4612
 5343SOL    HW117470   6.657   1.106   5.334  1.0744  1.6093  0.3298
 5343SOL    HW217471   6.715   1.169   5.210  0.5265 -0.0655 -0.8154
 5344SOL     OW17472   1.319   0.127   2.730 -0.8368 -0.3012  0.4954
 5344SOL    HW117473   1.234   0.092   2.703 -0.2824  0.2064 -2.1685
 5344SOL    HW217474   1.374   0.049   2.741 -1.3629 -0.5758  1.2505
 5345SOL     OW17475   2.231   0.060   1.815 -0.1086  0.5087  0.3729
 5345SOL    HW117476   2.325   0.054   1.833 -0.1902  0.6772  0.8910
 5345SOL    HW217477   2.224   0.123   1.743  0.1749  0.5212  0.3560
 5346SOL     OW17478   3.701   5.251   8.963 -0.2532 -0.0078 -0.1117
 5346SOL    HW117479   3.706   5.250   9.059  0.6091  3.3763  0.0234
 5346SOL    HW217480   3.792   5.240   8.935  0.4694  4.1539 -0.1441
 5347SOL     OW17481   0.637   3.582   2.944 -0.3869 -0.5860 -0.0317
 5347SOL    HW117482   0.624   3.589   2.850  3.4525 -1.3140 -0.7957
 5347SOL    HW217483   0.670   3.493   2.957 -0.0279 -0.2200  1.8832
 5348SOL     OW17484   7.057   0.402   0.555  0.3169  0.9012  0.8333
 5348SOL    HW117485   7.076   0.317   0.515  0.1448  0.7277  1.1133
 5348SOL    HW217486   7.139   0.428   0.597  0.0647  0.3460  1.6917
 5349SOL     OW17487   4.881   0.411   7.503  0.0085  0.1627  0.2155
 5349SOL    HW117488   4.937   0.488   7.504  1.9084 -1.0568 -1.9405
 5349SOL    HW217489   4.835   0.413   7.587  1.6406  2.4260  1.1431
 5350SOL     OW17490   2.915   6.150   9.836  0.1421 -0.1883  0.0915
 5350SOL    HW117491   2.890   6.229   9.885  0.4229  0.9687 -1.5378
 5350SOL    HW217492   2.979   6.181   9.772 -0.0293 -1.6682 -0.8385
 5351SOL     OW17493   0.120   1.414   5.118 -0.2942  0.4407 -0.2175
 5351SOL    HW117494   0.179   1.489   5.120 -0.3688  0.4883  0.6186
 5351SOL    HW217495   0.064   1.428   5.041  1.6967 -0.3270 -1.9048
 5352SOL     OW17496   4.044   3.943   1.499 -0.1123  0.3574 -0.6878
 5352SOL    HW117497   4.133   3.977   1.494  0.4528 -0.4722  1.9424
 5352SOL    HW217498   4.051   3.855   1.461  0.7283 -0.4819  1.2632
 5353SOL     OW17499   5.030   4.971  11.405  0.1865 -0.7314  0.0533
 5353SOL    HW117500   5.040   5.060  11.369  0.9671 -0.4550  0.9206
 5353SOL    HW217501   4.988   4.983  11.489 -0.1894 -1.2424 -0.0546
 5354SOL     OW17502   2.429   6.549   4.917 -0.2368 -0.2034 -0.1976
 5354SOL    HW117503   2.491   6.612   4.955 -0.1793 -0.4814  0.1721
 5354SOL    HW217504   2.392   6.503   4.992 -0.5925 -0.3246 -0.4416
 5355SOL     OW17505   3.330   0.688   6.923  0.4809 -0.0485  0.2334
 5355SOL    HW117506   3.311   0.604   6.881 -1.1210  1.1072 -1.4906
 5355SOL    HW217507   3.421   0.706   6.900  0.4924 -0.7841 -0.3376
 5356SOL     OW17508   3.855   0.251   4.082  0.0166 -0.0599  0.7445
 5356SOL    HW117509   3.836   0.339   4.050 -0.6237  0.4397  2.4009
 5356SOL    HW217510   3.790   0.195   4.039  1.5463 -0.0754 -1.7078
 5357SOL     OW17511   2.572   5.171  12.050 -0.8333 -0.0085  0.3743
 5357SOL    HW117512   2.587   5.139  11.961  0.6049  0.6362  0.3561
 5357SOL    HW217513   2.533   5.257  12.039 -0.1905  0.2858  0.3449
 5358SOL     OW17514   2.812   6.012   8.739  0.4687 -0.6521  0.0079
 5358SOL    HW117515   2.800   6.103   8.768  1.2652 -0.2648 -0.8057
 5358SOL    HW217516   2.904   5.993   8.756  0.3047 -1.3158  0.1811
 5359SOL     OW17517   5.857   7.174   2.711  0.1836 -0.5802  0.1295
 5359SOL    HW117518   5.802   7.240   2.669 -1.0845 -1.7363 -0.0841
 5359SOL    HW217519   5.930   7.161   2.650  1.1729  1.5155  0.7695
 5360SOL     OW17520   0.361   4.921   2.152 -0.2832 -0.5845 -0.0303
 5360SOL    HW117521   0.421   4.906   2.225 -1.5312 -0.8330  0.9855
 5360SOL    HW217522   0.398   4.870   2.080  1.0676 -0.2112  0.3558
 5361SOL     OW17523   3.283   4.485   8.295 -0.1379 -0.0264 -0.1621
 5361SOL    HW117524   3.347   4.537   8.247  1.3626  0.5483  2.3318
 5361SOL    HW217525   3.334   4.435   8.359 -2.0865 -0.1342  1.4264
 5362SOL     OW17526   3.688   5.152   9.938  0.0222  0.5049 -0.0696
 5362SOL    HW117527   3.702   5.246   9.929  0.0480  0.7591  2.0764
 5362SOL    HW217528   3.776   5.116   9.947 -0.0337  0.4162  0.1296
 5363SOL     OW17529   2.605   6.159   3.441 -0.3954  0.5208  0.1742
 5363SOL    HW117530   2.541   6.101   3.482 -1.1908  1.4549  0.3082
 5363SOL    HW217531   2.585   6.246   3.478 -0.8673  1.3345 -1.8373
 5364SOL     OW17532   5.454   1.493   7.842 -0.3891  0.2725 -0.2208
 5364SOL    HW117533   5.406   1.575   7.853 -0.8247  0.0459 -0.3981
 5364SOL    HW217534   5.516   1.512   7.771 -1.5591 -0.0004 -1.3660
 5365SOL     OW17535   5.532   7.217   4.498  0.0755  0.6146  0.1169
 5365SOL    HW117536   5.560   7.166   4.423  1.4910 -0.2307  1.1773
 5365SOL    HW217537   5.437   7.219   4.492  0.0697 -1.0513 -0.6523
 5366SOL     OW17538   0.750   2.824   3.385  0.1858 -0.2317 -0.0506
 5366SOL    HW117539   0.702   2.866   3.314  1.7673 -0.0480 -1.0620
 5366SOL    HW217540   0.695   2.838   3.463 -0.4384  1.6886 -0.7735
 5367SOL     OW17541   6.524   4.792   9.252  0.1975 -0.1750 -0.0737
 5367SOL    HW117542   6.576   4.714   9.235 -0.5359 -0.9321  0.9893
 5367SOL    HW217543   6.565   4.832   9.329  0.4646  0.4029 -0.5072
 5368SOL     OW17544   6.238   0.812   7.214 -0.1540 -0.4192  0.3068
 5368SOL    HW117545   6.189   0.832   7.134  0.2603  0.8763  0.3462
 5368SOL    HW217546   6.292   0.890   7.228  1.1715 -1.4037  0.8110
 5369SOL     OW17547   5.878   3.738  10.090 -0.2727 -0.3606  0.2524
 5369SOL    HW117548   5.895   3.828  10.060  1.9484 -0.2318  1.6366
 5369SOL    HW217549   5.920   3.682  10.025 -0.1855 -0.3175  0.2716
 5370SOL     OW17550   2.778   0.575  11.187 -0.3704  0.7762 -0.5927
 5370SOL    HW117551   2.828   0.581  11.105 -0.1143  0.3890 -0.4648
 5370SOL    HW217552   2.796   0.658  11.231  2.1553 -0.2926  0.5786
 5371SOL     OW17553   7.809   3.704   2.824 -0.1952 -0.2913  0.3550
 5371SOL    HW117554   7.823   3.738   2.912  1.1302  1.1743 -0.3789
 5371SOL    HW217555   7.866   3.628   2.818  0.6235  0.3118  0.3837
 5372SOL     OW17556   5.555   2.222   5.146 -0.3076  0.2859  0.2699
 5372SOL    HW117557   5.567   2.127   5.151  2.5620  0.5043 -0.8051
 5372SOL    HW217558   5.548   2.241   5.053 -2.6341  1.0311  0.5332
 5373SOL     OW17559   1.970   7.194   6.080 -0.0143  1.2417 -0.4465
 5373SOL    HW117560   1.912   7.268   6.061 -2.0589 -0.0458  0.4020
 5373SOL    HW217561   1.975   7.146   5.997 -0.2297  1.3202 -0.5068
 5374SOL     OW17562   4.416   3.786   9.325  0.0172 -0.0998  0.2072
 5374SOL    HW117563   4.509   3.791   9.348 -0.1400 -2.7140  1.8227
 5374SOL    HW217564   4.401   3.693   9.307 -2.2602  0.2910 -0.1681
 5375SOL     OW17565   1.771   6.422   1.400  0.3347 -0.5837 -0.0612
 5375SOL    HW117566   1.798   6.510   1.377  3.5323 -0.9177  1.7613
 5375SOL    HW217567   1.719   6.433   1.480  2.1055 -0.3326  1.1297
 5376SOL     OW17568   3.468   2.580  10.721  0.4573 -0.0611  0.6585
 5376SOL    HW117569   3.476   2.621  10.807  1.3694 -1.4716  1.2916
 5376SOL    HW217570   3.495   2.647  10.659  1.7426  0.3549  1.6380
 5377SOL     OW17571   7.039   6.786   2.735 -0.3510 -0.1885 -0.2183
 5377SOL    HW117572   7.054   6.752   2.823  1.7379 -2.6377 -1.3931
 5377SOL    HW217573   7.030   6.880   2.747 -1.1748 -0.5435  2.6862
 5378SOL     OW17574   5.229   2.063   1.242 -0.1957 -0.1728 -0.4758
 5378SOL    HW117575   5.211   2.142   1.192  0.5655 -0.4307 -1.1755
 5378SOL    HW217576   5.206   2.086   1.332 -1.8418  0.2092 -0.9645
 5379SOL     OW17577   6.469   5.801   4.038 -0.1000  0.0382  0.0323
 5379SOL    HW117578   6.374   5.800   4.048 -0.3565  1.9918 -1.5761
 5379SOL    HW217579   6.503   5.807   4.127 -1.5413  0.5745  0.5724
 5380SOL     OW17580   3.157   0.735  11.311 -0.1240 -0.6539 -0.0153
 5380SOL    HW117581   3.096   0.671  11.348 -0.1593 -0.3881  0.3940
 5380SOL    HW217582   3.156   0.807  11.373  0.5229 -0.5982 -0.0614
 5381SOL     OW17583   4.133   7.046   8.278 -0.5218  0.3412  0.1976
 5381SOL    HW117584   4.216   7.055   8.233 -0.0920  0.7419  1.0454
 5381SOL    HW217585   4.145   6.973   8.339 -0.9914  0.0087 -0.0956
 5382SOL     OW17586   3.551   4.562   8.636  0.1635 -0.1966 -0.2054
 5382SOL    HW117587   3.576   4.508   8.561  1.9182  0.8992 -0.4774
 5382SOL    HW217588   3.456   4.563   8.635  0.1123 -2.2477 -0.9241
 5383SOL     OW17589   4.504   6.637   2.673  0.0446 -0.2020 -0.3951
 5383SOL    HW117590   4.483   6.661   2.583  1.6869 -1.1782 -1.0842
 5383SOL    HW217591   4.597   6.659   2.683  0.0349 -0.6421  0.8832
 5384SOL     OW17592   4.258   4.040   9.536 -0.1490  0.2095  0.0487
 5384SOL    HW117593   4.215   3.982   9.473 -0.0685 -1.1426  1.1808
 5384SOL    HW217594   4.194   4.050   9.606  0.5762 -0.0981  0.7647
 5385SOL     OW17595   5.106   0.904  11.657 -0.6349  0.2977 -0.2793
 5385SOL    HW117596   5.017   0.933  11.636 -0.1774  1.4284 -0.7197
 5385SOL    HW217597   5.159   0.983  11.650  0.5710 -0.5501 -0.9526
 5386SOL     OW17598   2.182   5.504  11.187 -0.6572  0.3387 -0.2593
 5386SOL    HW117599   2.257   5.527  11.241 -0.5764 -0.5753  0.0370
 5386SOL    HW217600   2.150   5.422  11.224 -1.4001  0.3743 -0.7934
 5387SOL     OW17601   7.077   3.973   3.933 -0.1326 -0.2541 -0.3966
 5387SOL    HW117602   6.990   3.934   3.928 -0.3751  0.2695 -0.3651
 5387SOL    HW217603   7.122   3.943   3.855 -1.1283  1.3213 -1.6430
 5388SOL     OW17604   6.884   7.024   3.751  0.8709 -0.1376 -0.1199
 5388SOL    HW117605   6.837   7.056   3.828  0.9950  1.1631 -0.5603
 5388SOL    HW217606   6.860   7.085   3.681  1.6554 -0.6233 -0.8375
 5389SOL     OW17607   6.105   4.592   0.557 -0.3283 -0.3548 -0.2819
 5389SOL    HW117608   6.176   4.568   0.617 -0.4769  1.1021  0.5297
 5389SOL    HW217609   6.035   4.530   0.578  0.0907 -0.6967  0.1374
 5390SOL     OW17610   4.306   1.878   2.489 -0.3784 -0.3744  0.2961
 5390SOL    HW117611   4.266   1.963   2.508  0.3994 -0.1998  1.2101
 5390SOL    HW217612   4.241   1.814   2.517  0.0612 -0.0972  2.0407
 5391SOL     OW17613   7.710   6.636   4.942  0.0478 -0.1775 -0.2334
 5391SOL    HW117614   7.672   6.562   4.988 -0.4033  1.4317  2.1590
 5391SOL    HW217615   7.644   6.661   4.877  0.0649 -1.6063 -0.8289
 5392SOL     OW17616   7.570   5.893   6.399  0.2898 -0.5781 -0.0949
 5392SOL    HW117617   7.502   5.857   6.456  1.7127 -1.5124  1.0875
 5392SOL    HW217618   7.555   5.987   6.402 -0.1885 -0.6626  1.1845
 5393SOL     OW17619   7.681   2.815   0.216  0.5159  0.4842  0.4548
 5393SOL    HW117620   7.646   2.748   0.275  0.2214  0.5813  0.3944
 5393SOL    HW217621   7.770   2.831   0.247  1.0736 -0.9178 -0.3663
 5394SOL     OW17622   6.282   4.898   0.910 -0.1264 -0.0181  0.3262
 5394SOL    HW117623   6.321   4.824   0.864 -0.7841  0.0742 -0.4049
 5394SOL    HW217624   6.252   4.862   0.993 -1.1216 -0.7714 -0.3300
 5395SOL     OW17625   2.335   6.419   3.134  0.2161 -0.4600  0.2581
 5395SOL    HW117626   2.319   6.467   3.215 -0.7617 -0.9907  0.4014
 5395SOL    HW217627   2.255   6.367   3.121  0.6596 -0.9395 -0.6518
 5396SOL     OW17628   5.004   1.907   3.487  0.2375 -0.3112 -0.0694
 5396SOL    HW117629   5.039   1.988   3.524  1.2007 -0.6277 -0.2670
 5396SOL    HW217630   4.944   1.936   3.418  0.5428  0.2417 -0.1085
 5397SOL     OW17631   6.969   3.757   7.890 -0.1837 -0.3654  0.0294
 5397SOL    HW117632   6.997   3.735   7.801 -0.8212 -1.8785  0.1601
 5397SOL    HW217633   6.875   3.741   7.889 -0.5140  1.3999  0.4950
 5398SOL     OW17634   0.657   7.944   6.138 -0.7317  0.0531 -0.2410
 5398SOL    HW117635   0.567   7.917   6.159 -0.3218 -0.6251  0.6850
 5398SOL    HW217636   0.651   7.977   6.049 -2.1218  1.0067  0.1527
 5399SOL     OW17637   2.060   2.867   8.138 -0.1024 -0.0643  0.0308
 5399SOL    HW117638   2.085   2.836   8.225 -0.1986 -1.6275 -0.4730
 5399SOL    HW217639   2.075   2.792   8.080 -0.8779  0.6619 -1.1543
 5400SOL     OW17640   4.488   6.018   7.905  0.0073  0.4316  0.4671
 5400SOL    HW117641   4.425   6.038   7.974 -0.3066  0.4205  0.1858
 5400SOL    HW217642   4.435   5.986   7.832  0.3186  0.6115  0.1558
 5401SOL     OW17643   2.704   6.918   1.998  0.0729  0.0675  0.0112
 5401SOL    HW117644   2.684   6.974   1.923  3.1732 -1.2636 -2.0233
 5401SOL    HW217645   2.785   6.954   2.034  0.1766 -1.0194  0.9259
 5402SOL     OW17646   5.389   5.499   2.194  0.0592  0.3815  0.0753
 5402SOL    HW117647   5.398   5.519   2.100 -0.8012 -1.6275 -0.4934
 5402SOL    HW217648   5.294   5.492   2.208  0.2112 -0.5156  0.7869
 5403SOL     OW17649   0.090   0.714   1.470  0.1234 -0.0086  0.3611
 5403SOL    HW117650   0.123   0.801   1.444  1.9947 -0.0832  2.2027
 5403SOL    HW217651   0.061   0.674   1.388  0.9044  1.6780 -0.8028
 5404SOL     OW17652   2.274   0.297  12.136 -0.5244 -0.1794 -0.1028
 5404SOL    HW117653   2.273   0.210  12.176  1.3091  0.2402  0.9618
 5404SOL    HW217654   2.365   0.326  12.142 -0.8593  1.3516 -1.4929
 5405SOL     OW17655   0.785   6.868   4.289 -0.2616  0.1971  0.0403
 5405SOL    HW117656   0.801   6.777   4.266  0.9998  0.6856 -1.2446
 5405SOL    HW217657   0.752   6.866   4.379  0.3884 -1.4689  0.2690
 5406SOL     OW17658   0.995   4.006   7.595  0.0807  0.3867 -0.4832
 5406SOL    HW117659   0.926   4.004   7.661  2.3607 -3.2456  2.1242
 5406SOL    HW217660   0.962   4.067   7.529 -3.7831  1.8891  2.4188
 5407SOL     OW17661   4.073   3.305   1.705  0.1056 -0.2306 -0.4299
 5407SOL    HW117662   4.163   3.327   1.683 -0.6835  1.5404 -2.2860
 5407SOL    HW217663   4.021   3.368   1.655 -2.1286 -0.3041  1.6352
 5408SOL     OW17664   3.256   0.454   3.267 -0.3186 -0.3016  0.5772
 5408SOL    HW117665   3.253   0.465   3.171 -0.0623 -0.2412  0.5745
 5408SOL    HW217666   3.343   0.421   3.284 -0.6634 -1.1470  0.7145
 5409SOL     OW17667   4.090   2.908   6.210  0.0646  0.2142 -0.1560
 5409SOL    HW117668   4.127   2.963   6.279 -0.3229 -0.8102  0.9114
 5409SOL    HW217669   3.998   2.936   6.203  0.3394  0.9531 -0.9330
 5410SOL     OW17670   0.966   7.670   8.023 -0.6670 -0.1390  0.3829
 5410SOL    HW117671   0.936   7.760   8.009 -0.4258  0.0957  1.3131
 5410SOL    HW217672   1.057   7.679   8.051 -0.8997 -0.6047  1.3605
 5411SOL     OW17673   7.630   5.179   4.804 -0.0040  0.1557 -0.1795
 5411SOL    HW117674   7.618   5.210   4.894  1.6877 -1.4722  0.6683
 5411SOL    HW217675   7.705   5.229   4.772  0.0002  0.0314 -0.3619
 5412SOL     OW17676   2.576   1.821   8.539 -0.1443 -0.0231  0.4543
 5412SOL    HW117677   2.560   1.733   8.573 -0.8035  0.0505  0.3445
 5412SOL    HW217678   2.614   1.806   8.452 -0.1290 -0.2000  0.4912
 5413SOL     OW17679   5.329   0.896   8.635 -0.1829 -0.2528  0.0273
 5413SOL    HW117680   5.401   0.898   8.697 -1.4161 -0.1252  1.5122
 5413SOL    HW217681   5.352   0.962   8.569  2.0831 -1.7594 -0.8059
 5414SOL     OW17682   6.523   5.931   2.616 -0.2626 -0.0354  0.2352
 5414SOL    HW117683   6.461   5.948   2.546 -0.2684  1.0446  0.4861
 5414SOL    HW217684   6.543   6.018   2.652  0.1555 -0.5192  1.2062
 5415SOL     OW17685   4.394   5.962   7.614 -0.3189  0.2940 -0.1413
 5415SOL    HW117686   4.404   6.035   7.552 -0.1022 -0.0846 -0.5611
 5415SOL    HW217687   4.300   5.942   7.612 -0.0806 -0.9790 -1.8536
 5416SOL     OW17688   2.128   2.119   9.837 -0.0103 -0.4343 -0.0226
 5416SOL    HW117689   2.061   2.157   9.780  0.4714  1.5283  0.6349
 5416SOL    HW217690   2.200   2.097   9.779  0.3339  1.2050 -0.2442
 5417SOL     OW17691   5.272   5.926  11.076 -0.6784 -0.1117 -0.1753
 5417SOL    HW117692   5.300   5.922  10.984  0.4583 -2.2052  0.1800
 5417SOL    HW217693   5.310   5.847  11.115 -1.1896  0.7008  2.0926
 5418SOL     OW17694   4.546   0.649   8.833 -0.2005 -0.4726 -0.1424
 5418SOL    HW117695   4.493   0.586   8.881 -1.2931  0.4383 -0.1131
 5418SOL    HW217696   4.604   0.687   8.899  1.1045 -2.0474 -0.3241
 5419SOL     OW17697   2.341   5.165   2.467  0.7028 -0.2806  0.2573
 5419SOL    HW117698   2.361   5.115   2.546  0.9788  0.2605  0.5280
 5419SOL    HW217699   2.304   5.099   2.407 -1.3131 -0.3617  1.4883
 5420SOL     OW17700   7.358   2.328   9.746 -0.1832 -0.5983  0.0069
 5420SOL    HW117701   7.416   2.402   9.729 -0.4140 -0.6733 -1.2328
 5420SOL    HW217702   7.382   2.298   9.834 -0.7074  1.4921  0.9084
 5421SOL     OW17703   4.489   4.901  12.430 -0.3246  0.0465  0.6332
 5421SOL    HW117704   4.475   4.993  12.406  1.0958 -0.4116 -2.3552
 5421SOL    HW217705   4.509   4.903  12.523  0.0038  2.7959  0.5670
 5422SOL     OW17706   5.905   4.012   5.904 -0.0054  0.2825  0.1504
 5422SOL    HW117707   5.942   3.986   5.819 -0.9859  1.5311 -0.6948
 5422SOL    HW217708   5.957   4.088   5.930  0.3227 -0.1250  0.7099
 5423SOL     OW17709   5.443   4.227   1.956  0.5334 -0.2930 -0.4837
 5423SOL    HW117710   5.513   4.194   1.900  1.5134  0.4222  0.2861
 5423SOL    HW217711   5.462   4.320   1.965  0.1449 -0.3173  0.6853
 5424SOL     OW17712   0.927   6.042   4.442  0.7554  0.5369 -0.1391
 5424SOL    HW117713   0.999   6.090   4.484  2.0043 -0.2511 -1.2916
 5424SOL    HW217714   0.943   6.053   4.349  0.3621 -1.0739 -0.4204
 5425SOL     OW17715   6.521   2.082   7.631  0.5193  0.0342  0.0342
 5425SOL    HW117716   6.575   2.080   7.710  1.5505  0.7951 -0.6342
 5425SOL    HW217717   6.546   2.163   7.586 -0.3456 -0.1809 -0.8795
 5426SOL     OW17718   0.600   4.388   7.488 -0.0253 -0.3106  0.0255
 5426SOL    HW117719   0.509   4.413   7.471  0.0486  2.2817  2.6913
 5426SOL    HW217720   0.598   4.347   7.575  1.0434 -3.0108 -1.1036
 5427SOL     OW17721   5.482   3.610   8.162 -0.4248 -0.2973  0.9938
 5427SOL    HW117722   5.545   3.679   8.143 -0.6013 -0.2859  0.4155
 5427SOL    HW217723   5.462   3.619   8.255 -0.9470  0.8499  0.7817
 5428SOL     OW17724   4.183   2.141   3.247 -0.4238 -0.0040  0.5109
 5428SOL    HW117725   4.108   2.179   3.292  0.2543  2.2013 -0.0962
 5428SOL    HW217726   4.152   2.124   3.158 -0.5689 -0.4327  0.6365
 5429SOL     OW17727   5.399   2.331   8.144  0.4113 -0.5697 -0.3939
 5429SOL    HW117728   5.341   2.261   8.113  0.3553 -0.6738 -0.0581
 5429SOL    HW217729   5.428   2.301   8.230  1.9337 -1.0778 -1.0593
 5430SOL     OW17730   3.323   0.686   3.941 -0.4740 -0.0802  0.1595
 5430SOL    HW117731   3.297   0.729   4.023 -1.6751 -0.7941  0.1831
 5430SOL    HW217732   3.352   0.599   3.968 -0.0687 -0.0285 -0.1003
 5431SOL     OW17733   1.462   6.970   4.464 -0.6608  0.3831  0.5121
 5431SOL    HW117734   1.511   6.954   4.545 -1.4846 -0.6715  0.8208
 5431SOL    HW217735   1.509   7.042   4.421  0.9489 -0.3640  0.9661
 5432SOL     OW17736   4.388   3.949   6.661 -0.7576 -0.4896 -0.1682
 5432SOL    HW117737   4.300   3.980   6.682 -0.3127  0.2543  0.6671
 5432SOL    HW217738   4.434   3.947   6.745 -0.0086 -0.9698 -0.5746
 5433SOL     OW17739   5.778   6.779   7.194 -0.1405 -0.1967 -0.0463
 5433SOL    HW117740   5.735   6.773   7.279 -2.0183 -0.9280 -1.0035
 5433SOL    HW217741   5.713   6.819   7.136  0.7224 -0.6375 -1.3844
 5434SOL     OW17742   0.034   0.759   8.563 -0.3602  0.7434 -0.5338
 5434SOL    HW117743   0.119   0.715   8.557 -0.4472  0.3409  0.9065
 5434SOL    HW217744  -0.027   0.699   8.521 -0.2637  0.0529  0.2837
 5435SOL     OW17745   1.578   6.410  10.873 -0.1673 -0.5197 -0.1655
 5435SOL    HW117746   1.557   6.503  10.864 -1.5739 -0.8929 -1.0257
 5435SOL    HW217747   1.662   6.409  10.919  0.4756  1.1983 -1.1915
 5436SOL     OW17748   3.615   7.225   3.250  0.3207  0.3724 -0.5308
 5436SOL    HW117749   3.554   7.170   3.300  1.3090  1.1659  1.6556
 5436SOL    HW217750   3.593   7.207   3.159 -3.1286  0.5245  0.1034
 5437SOL     OW17751   6.552   3.315  10.471 -0.4930  0.6741 -0.5420
 5437SOL    HW117752   6.571   3.296  10.379 -0.3408  0.7737 -0.5314
 5437SOL    HW217753   6.586   3.404  10.485  1.9501 -0.2985  0.3107
 5438SOL     OW17754   5.290   1.207  10.107  0.4457 -0.0648  0.2195
 5438SOL    HW117755   5.319   1.217  10.198 -0.8086 -0.1315  0.6554
 5438SOL    HW217756   5.347   1.264  10.057  1.6512 -0.6024  0.9453
 5439SOL     OW17757   1.467   4.983   7.783  0.1065  0.2513  0.0148
 5439SOL    HW117758   1.536   5.043   7.754 -0.2744  0.5467 -0.2911
 5439SOL    HW217759   1.455   4.924   7.708 -0.4581  0.6367 -0.2020
 5440SOL     OW17760   3.650   7.684   4.150  0.2638  0.4815  0.0579
 5440SOL    HW117761   3.586   7.630   4.197  0.2803  1.2085  0.9405
 5440SOL    HW217762   3.705   7.621   4.103 -0.7732 -0.1833 -0.3066
 5441SOL     OW17763   2.506   5.712   6.287 -0.3107 -0.1756  0.2362
 5441SOL    HW117764   2.597   5.743   6.296 -0.5708  0.0592  3.0001
 5441SOL    HW217765   2.515   5.620   6.261  0.5993  0.4376 -1.8624
 5442SOL     OW17766   4.230   7.234   5.218  0.2527  0.9873 -0.0550
 5442SOL    HW117767   4.160   7.180   5.254  1.1966 -0.0524  0.2642
 5442SOL    HW217768   4.191   7.321   5.209 -1.5734  0.1094 -1.3534
 5443SOL     OW17769   4.079   7.272   9.679  0.1454  0.5388  0.3493
 5443SOL    HW117770   4.029   7.288   9.760  0.6142  0.6007  0.6300
 5443SOL    HW217771   4.139   7.347   9.673 -0.4820  0.9967 -0.5257
 5444SOL     OW17772   4.624   2.724   9.049 -0.9057 -0.3039  0.3333
 5444SOL    HW117773   4.660   2.808   9.079 -1.5924  0.3993 -0.7715
 5444SOL    HW217774   4.553   2.748   8.990 -0.9739 -1.6728 -0.1670
 5445SOL     OW17775   1.097   3.490  11.880  0.8558 -0.4188 -0.4735
 5445SOL    HW117776   1.147   3.420  11.839 -0.5827 -1.5236 -0.4397
 5445SOL    HW217777   1.023   3.505  11.821  0.6386  0.4172 -0.0080
 5446SOL     OW17778   0.412   1.089   1.904 -0.2703  0.1309  0.2380
 5446SOL    HW117779   0.426   1.010   1.956 -2.7961 -0.5849 -0.0489
 5446SOL    HW217780   0.323   1.080   1.870  0.0602  2.2183 -1.3751
 5447SOL     OW17781   4.529   7.598   9.828  0.2548  0.0651 -0.3519
 5447SOL    HW117782   4.566   7.684   9.809  0.5695 -0.4065 -2.0855
 5447SOL    HW217783   4.458   7.589   9.764 -0.0041 -0.8212  0.0503
 5448SOL     OW17784   3.889   7.394   3.595 -0.3137 -0.5408  0.1274
 5448SOL    HW117785   3.834   7.392   3.517 -1.3615  0.7741  0.8017
 5448SOL    HW217786   3.938   7.312   3.592 -1.6756 -1.3560 -0.9538
 5449SOL     OW17787   2.521   4.852  10.496  0.5753 -0.3242 -0.3760
 5449SOL    HW117788   2.604   4.813  10.467 -0.2340 -0.0951 -3.2957
 5449SOL    HW217789   2.544   4.942  10.519  1.0244  0.0668 -2.1931
 5450SOL     OW17790   4.749   7.827   3.662 -0.7077 -0.7164  0.3375
 5450SOL    HW117791   4.820   7.864   3.610 -1.2580 -0.2542 -0.0927
 5450SOL    HW217792   4.759   7.732   3.652 -0.3289 -0.6462  0.0437
 5451SOL     OW17793   4.804   0.014   4.325  0.3487 -0.4034  0.0473
 5451SOL    HW117794   4.743  -0.059   4.336  0.7095 -0.8192 -0.6629
 5451SOL    HW217795   4.824   0.016   4.232 -0.4545  1.2621 -0.1350
 5452SOL     OW17796   1.247   5.924   3.492  0.1118  0.5521 -0.3979
 5452SOL    HW117797   1.284   6.009   3.513  0.3263  0.1536  0.9283
 5452SOL    HW217798   1.202   5.897   3.572 -2.1103  0.5114 -1.5813
 5453SOL     OW17799   6.047   4.033  12.070 -0.4487  0.2901  0.0112
 5453SOL    HW117800   6.069   3.943  12.096  0.4954  0.4535 -0.2013
 5453SOL    HW217801   6.103   4.088  12.125 -2.0767  0.8284  1.2080
 5454SOL     OW17802   1.723   4.305   3.616 -0.1304  0.3486 -0.5967
 5454SOL    HW117803   1.787   4.238   3.590  0.4626  1.1006 -1.0942
 5454SOL    HW217804   1.776   4.375   3.655 -0.6475  0.9894 -1.0393
 5455SOL     OW17805   6.092   7.354   2.756 -0.1183  0.2339 -0.0500
 5455SOL    HW117806   6.015   7.410   2.768  0.3823  1.0006 -0.3288
 5455SOL    HW217807   6.086   7.327   2.664 -0.7981 -0.8544  0.2988
 5456SOL     OW17808   2.749   2.332   8.787  0.5608  0.1319 -0.3005
 5456SOL    HW117809   2.723   2.379   8.709  2.0743 -0.3242 -1.1107
 5456SOL    HW217810   2.796   2.396   8.840  1.4286 -0.0893 -0.7805
 5457SOL     OW17811   6.326   1.542  12.159  0.4324  0.4093 -0.2036
 5457SOL    HW117812   6.307   1.601  12.086 -0.9979  0.3073  0.0610
 5457SOL    HW217813   6.241   1.505  12.182  0.7131  1.0286  2.0190
 5458SOL     OW17814   5.844   0.813  10.098  0.1090  0.1609  0.2845
 5458SOL    HW117815   5.785   0.842  10.168  2.7664  0.4934  2.5586
 5458SOL    HW217816   5.900   0.888  10.080  0.6677 -0.5113 -0.9089
 5459SOL     OW17817   3.148   7.471   6.768 -0.2489  0.1233 -0.2415
 5459SOL    HW117818   3.229   7.466   6.819  0.0836  1.3583 -0.6149
 5459SOL    HW217819   3.174   7.510   6.685 -1.4654  2.0040  0.2105
 5460SOL     OW17820   7.544   2.490   2.600 -0.0084  0.0296  0.1090
 5460SOL    HW117821   7.570   2.583   2.601 -0.3939  0.1435 -0.0933
 5460SOL    HW217822   7.607   2.449   2.540 -0.1536  0.2584 -0.2027
 5461SOL     OW17823   2.739   0.670   4.615 -0.0009  0.1873 -0.6961
 5461SOL    HW117824   2.801   0.654   4.685 -2.4112 -0.0175  1.5130
 5461SOL    HW217825   2.717   0.763   4.624 -1.9919 -0.3337  0.3583
 5462SOL     OW17826   4.939   1.313   4.679 -0.5019  0.4327 -0.1522
 5462SOL    HW117827   4.862   1.285   4.631 -1.1679  0.9277  0.5921
 5462SOL    HW217828   4.968   1.392   4.634 -1.9466  1.7036  1.0122
 5463SOL     OW17829   4.376   1.349   9.056  0.0778  0.2129  0.1094
 5463SOL    HW117830   4.348   1.274   9.004  0.6324  0.0737  0.0110
 5463SOL    HW217831   4.451   1.385   9.008  0.0977  0.5589  0.3965
 5464SOL     OW17832   5.147   7.332  10.867  0.4030  0.3672  0.0811
 5464SOL    HW117833   5.233   7.309  10.903  0.6883  0.2434 -0.6549
 5464SOL    HW217834   5.164   7.410  10.814  0.7202 -1.4360 -2.6561
 5465SOL     OW17835   7.658   1.999   1.722  0.4241  0.4328  0.3270
 5465SOL    HW117836   7.580   2.012   1.776  0.9710 -1.0925  1.5565
 5465SOL    HW217837   7.717   2.070   1.748  0.1627  0.4955  0.7564
 5466SOL     OW17838   6.180   3.054  11.328 -0.1117  0.3295  0.1968
 5466SOL    HW117839   6.258   3.051  11.383 -0.3639  1.6337  0.6747
 5466SOL    HW217840   6.209   3.019  11.244  1.5919  2.6645 -0.2982
 5467SOL     OW17841   3.770   7.640   9.316 -0.4506  0.2351 -0.5748
 5467SOL    HW117842   3.839   7.587   9.356  0.2148 -0.2236 -2.2519
 5467SOL    HW217843   3.815   7.717   9.281 -0.5478 -0.5837 -2.6366
 5468SOL     OW17844   6.230   6.626   1.060  0.2100 -0.2397 -0.0286
 5468SOL    HW117845   6.173   6.692   1.022 -0.3689 -0.8453 -0.2239
 5468SOL    HW217846   6.300   6.615   0.996 -1.0484 -1.6553 -1.2457
 5469SOL     OW17847   2.684   3.270   9.333  0.5879  0.1051 -0.4453
 5469SOL    HW117848   2.678   3.186   9.378  0.5596  0.9886  1.3042
 5469SOL    HW217849   2.602   3.278   9.284 -1.3943  0.8724  2.7001
 5470SOL     OW17850   2.732   0.480  11.936 -0.3496 -0.3112 -0.0839
 5470SOL    HW117851   2.720   0.575  11.929 -1.2490 -0.3549  0.6378
 5470SOL    HW217852   2.682   0.445  11.863 -0.0355 -0.2355 -0.3381
 5471SOL     OW17853   2.929   0.917  10.212 -0.1806 -0.5902 -0.7783
 5471SOL    HW117854   3.005   0.971  10.190  0.1458  0.0759  1.6876
 5471SOL    HW217855   2.866   0.978  10.251 -1.4576 -1.3547 -1.5838
 5472SOL     OW17856   1.706   6.269   3.387 -0.0068  0.3191 -0.0077
 5472SOL    HW117857   1.773   6.203   3.366 -0.0660  0.5718 -1.0583
 5472SOL    HW217858   1.625   6.218   3.393  0.1751  0.0937  0.7067
 5473SOL     OW17859   0.785   3.021   4.985  0.1822  0.1645 -0.3863
 5473SOL    HW117860   0.709   3.061   5.028 -0.4162 -1.6872  0.3553
 5473SOL    HW217861   0.762   3.021   4.892  0.2383  1.5535 -0.4303
 5474SOL     OW17862   4.082   5.148   5.665 -0.1610 -0.7782 -0.1702
 5474SOL    HW117863   3.993   5.123   5.640 -0.0263  0.0693 -1.5897
 5474SOL    HW217864   4.137   5.078   5.630 -0.0010  0.2630 -2.1437
 5475SOL     OW17865   3.306   4.859   7.488 -0.4627 -0.0118  0.2790
 5475SOL    HW117866   3.346   4.774   7.472 -2.9795 -1.3699  0.6935
 5475SOL    HW217867   3.286   4.893   7.401 -0.2829 -0.2528  0.1415
 5476SOL     OW17868   2.084   6.114   2.224 -0.3312 -0.3022  0.7154
 5476SOL    HW117869   2.157   6.053   2.223  0.4035  0.5656 -0.5558
 5476SOL    HW217870   2.076   6.144   2.134 -2.2399 -0.3446  0.8333
 5477SOL     OW17871   7.426   0.836   9.748  0.1266  0.0036  0.4477
 5477SOL    HW117872   7.350   0.815   9.802 -3.2512  1.3166 -3.2741
 5477SOL    HW217873   7.449   0.926   9.773  0.4051 -0.3483  1.4998
 5478SOL     OW17874   2.486   1.509   2.754  0.4243 -0.2741 -0.4070
 5478SOL    HW117875   2.568   1.486   2.798 -1.2973  0.0744  3.3909
 5478SOL    HW217876   2.471   1.437   2.694  1.2419 -2.9307  2.2899
 5479SOL     OW17877   4.569   6.297   5.258 -0.4626 -0.0979 -0.2836
 5479SOL    HW117878   4.662   6.317   5.270 -0.7802  0.8273  0.8848
 5479SOL    HW217879   4.532   6.307   5.346 -1.7157 -0.1513 -0.7988
 5480SOL     OW17880   0.682   1.365  10.327 -0.2389 -0.3583  0.1052
 5480SOL    HW117881   0.736   1.401  10.398  1.0929 -1.5984 -0.2279
 5480SOL    HW217882   0.691   1.427  10.255 -0.3209  0.1055  0.4956
 5481SOL     OW17883   7.932   7.509   2.521 -0.2023  0.0894  0.2753
 5481SOL    HW117884   7.922   7.493   2.427  0.2665  0.5635  0.1387
 5481SOL    HW217885   8.025   7.497   2.538 -0.0159  1.4825  0.3805
 5482SOL     OW17886   6.252   0.788   4.862  0.7047  0.2135 -0.5226
 5482SOL    HW117887   6.221   0.739   4.938  1.8378  1.2088  0.6216
 5482SOL    HW217888   6.240   0.727   4.788 -1.4855 -0.3626  0.2296
 5483SOL     OW17889   1.168   5.003  12.109  0.5204  0.3667 -0.2473
 5483SOL    HW117890   1.119   5.085  12.106  0.6170  0.4232 -0.2773
 5483SOL    HW217891   1.230   5.015  12.181  1.6200  0.9294 -1.2605
 5484SOL     OW17892   5.389   0.228   3.731  0.2790  1.1650  0.0692
 5484SOL    HW117893   5.477   0.238   3.768 -0.1305  0.7957  1.2142
 5484SOL    HW217894   5.332   0.269   3.796 -0.4407  0.8359 -0.3507
 5485SOL     OW17895   4.179   1.387  12.199  0.3492  0.2088 -0.0234
 5485SOL    HW117896   4.237   1.325  12.154 -0.3097  0.2158 -0.9054
 5485SOL    HW217897   4.133   1.432  12.128 -1.0225 -0.0693  0.6653
 5486SOL     OW17898   0.501   7.337   4.468 -0.1501 -0.8552 -0.5363
 5486SOL    HW117899   0.494   7.242   4.471  2.3092 -1.0820  0.9312
 5486SOL    HW217900   0.498   7.365   4.560  3.2913 -0.0192 -0.5436
 5487SOL     OW17901   5.828   5.597  11.683  0.2101 -0.0710 -0.0388
 5487SOL    HW117902   5.874   5.677  11.656  1.7777 -0.5894  1.0121
 5487SOL    HW217903   5.744   5.629  11.716  1.3190  1.3173  1.5853
 5488SOL     OW17904   1.117   0.955   6.333 -0.1654  0.2871 -0.2767
 5488SOL    HW117905   1.134   0.947   6.427 -0.1677  1.7035 -0.1219
 5488SOL    HW217906   1.133   1.048   6.314  1.8207 -0.3500 -2.0955
 5489SOL     OW17907   1.108   0.683   5.627 -0.3546  0.0080 -0.1548
 5489SOL    HW117908   1.127   0.771   5.659 -0.1885 -0.1752  0.2542
 5489SOL    HW217909   1.093   0.694   5.533 -1.5361  0.6616  0.0880
 5490SOL     OW17910   3.054   7.327   9.015  0.2554 -0.0217  0.0719
 5490SOL    HW117911   3.071   7.369   9.100 -1.6500  2.0067 -0.4445
 5490SOL    HW217912   2.990   7.258   9.035 -0.2260  0.4822  0.3119
 5491SOL     OW17913   1.481   3.903   4.923 -0.4650  0.1883 -0.4974
 5491SOL    HW117914   1.447   3.835   4.981 -1.6734 -1.3686 -2.8885
 5491SOL    HW217915   1.543   3.952   4.978 -0.1484 -2.3040  1.5577
 5492SOL     OW17916   6.559   7.577   8.949 -0.0018  0.0439 -0.0933
 5492SOL    HW117917   6.550   7.669   8.925  1.8291  0.5628  1.0222
 5492SOL    HW217918   6.532   7.529   8.871 -0.4412  1.5234 -0.8815
 5493SOL     OW17919   1.695   2.573  11.518 -0.0017  0.2169 -0.4194
 5493SOL    HW117920   1.651   2.655  11.498  0.2380  0.2774 -0.6956
 5493SOL    HW217921   1.784   2.598  11.541 -0.0939  0.0897  0.0951
 5494SOL     OW17922   0.135   3.739   6.877 -0.0617 -0.2090  0.0485
 5494SOL    HW117923   0.097   3.652   6.864 -0.7045 -0.0763  0.9748
 5494SOL    HW217924   0.195   3.750   6.803  1.1508 -2.0239  0.7039
 5495SOL     OW17925   7.189   4.657   9.007 -0.4814  0.3621  0.1548
 5495SOL    HW117926   7.265   4.711   8.989  2.3403 -3.2604 -0.0148
 5495SOL    HW217927   7.135   4.664   8.928  1.2156  0.7181 -1.0122
 5496SOL     OW17928   1.922   3.181   7.063 -0.4501  0.3918 -0.1204
 5496SOL    HW117929   1.950   3.267   7.034  0.9143  1.0037  2.6735
 5496SOL    HW217930   1.830   3.191   7.085 -1.2026  0.1968 -2.8252
 5497SOL     OW17931   5.955   2.084   3.772 -0.4512 -0.5527  0.5410
 5497SOL    HW117932   5.931   1.991   3.775  0.0896 -0.6870  2.3639
 5497SOL    HW217933   5.878   2.130   3.806 -0.1667 -0.4903  1.1189
 5498SOL     OW17934   5.718   4.106   9.599  0.3432  0.1436 -0.2197
 5498SOL    HW117935   5.768   4.185   9.579 -0.0484  0.1662 -1.1200
 5498SOL    HW217936   5.728   4.051   9.522 -2.3170  0.8073 -1.1260
 5499SOL     OW17937   2.825   5.851  10.321 -0.5118  0.3956 -0.4446
 5499SOL    HW117938   2.897   5.860  10.258  0.6190  0.9787  0.8715
 5499SOL    HW217939   2.800   5.941  10.342  0.3723  0.2982  1.2571
 5500SOL     OW17940   2.638   0.377  11.715 -0.4902  0.0820  0.3794
 5500SOL    HW117941   2.631   0.421  11.630 -1.1938  0.1999  0.4961
 5500SOL    HW217942   2.553   0.336  11.728  0.2321 -1.5985  0.1316
 5501SOL     OW17943   4.429   2.546   0.943  0.0626  0.1284  0.4086
 5501SOL    HW117944   4.485   2.552   0.866 -0.8624 -0.8113 -0.3568
 5501SOL    HW217945   4.464   2.473   0.993 -0.5180 -0.5320 -0.1264
 5502SOL     OW17946   7.559   2.728   8.266 -0.6333  0.1773  0.4726
 5502SOL    HW117947   7.479   2.685   8.236 -0.7149  0.6033  0.0781
 5502SOL    HW217948   7.616   2.655   8.292 -0.3922 -0.2456 -1.1205
 5503SOL     OW17949   7.739   3.773   6.376 -0.4750 -0.3030  0.1567
 5503SOL    HW117950   7.767   3.842   6.316 -1.0216 -0.9703 -0.8774
 5503SOL    HW217951   7.645   3.785   6.385 -0.1109  1.3940  2.9596
 5504SOL     OW17952   5.809   0.888   2.744 -0.1382  0.4036  0.0451
 5504SOL    HW117953   5.784   0.799   2.770 -0.8242  0.7923  0.7624
 5504SOL    HW217954   5.904   0.889   2.749 -0.0807 -0.4893 -0.6523
 5505SOL     OW17955   4.813   6.110   8.707 -0.1854  0.1863  0.2444
 5505SOL    HW117956   4.786   6.167   8.779 -0.1769  0.0742  0.3367
 5505SOL    HW217957   4.730   6.082   8.666 -0.1997  0.0299  0.3818
 5506SOL     OW17958   4.612   4.247   1.675  0.0230  0.4675 -0.0432
 5506SOL    HW117959   4.522   4.249   1.642 -0.0107  0.8197  0.0644
 5506SOL    HW217960   4.609   4.186   1.748  0.4050 -1.4498 -1.5433
 5507SOL     OW17961   4.186   2.146   8.240 -0.5262  0.3611  0.0158
 5507SOL    HW117962   4.192   2.132   8.145 -0.0549 -0.2275  0.1248
 5507SOL    HW217963   4.237   2.074   8.278 -0.5511  0.7020  0.7098
 5508SOL     OW17964   4.175   7.667   8.951 -0.0182  0.6387  0.5083
 5508SOL    HW117965   4.200   7.575   8.944 -0.1862  0.7126 -2.4717
 5508SOL    HW217966   4.136   7.675   9.038  0.7032 -1.9061  1.1471
 5509SOL     OW17967   6.580   3.676  11.046 -0.0944  0.1914  0.2103
 5509SOL    HW117968   6.505   3.618  11.053  1.4999 -2.1177 -0.5556
 5509SOL    HW217969   6.597   3.682  10.952  0.1906  1.3729  0.3181
 5510SOL     OW17970   7.640   0.939   6.839  0.0893  0.2525 -0.3327
 5510SOL    HW117971   7.654   0.844   6.839  0.4739  0.3041 -0.5320
 5510SOL    HW217972   7.646   0.964   6.746 -1.5700  0.2625 -0.4542
 5511SOL     OW17973   3.700   7.523   0.613 -0.3060 -0.5291  0.4205
 5511SOL    HW117974   3.644   7.577   0.669 -0.5181  0.2220 -0.4909
 5511SOL    HW217975   3.781   7.512   0.664 -0.5806 -0.0555  0.9741
 5512SOL     OW17976   7.097   4.591   6.484  0.6565 -0.5069 -0.3917
 5512SOL    HW117977   7.084   4.670   6.535 -1.1347 -0.3815 -0.9978
 5512SOL    HW217978   7.192   4.577   6.486  0.8538  0.8129  0.9393
 5513SOL     OW17979   7.097   4.368   6.145 -0.5808 -0.1859  0.0122
 5513SOL    HW117980   7.181   4.407   6.120 -0.8313  0.7766  0.5799
 5513SOL    HW217981   7.105   4.353   6.240 -0.3942 -1.8138 -0.2337
 5514SOL     OW17982   0.888   7.482  11.521 -0.3106  0.5519 -0.5317
 5514SOL    HW117983   0.861   7.547  11.457 -1.5516  1.0208  0.4456
 5514SOL    HW217984   0.868   7.398  11.480 -0.5963  0.8319 -0.9712
 5515SOL     OW17985   2.835   2.486   7.410  0.0512  0.4323  0.7961
 5515SOL    HW117986   2.759   2.509   7.357  0.2457  2.4714  1.3347
 5515SOL    HW217987   2.839   2.553   7.478  1.6051 -0.3466  1.5348
 5516SOL     OW17988   4.158   5.491   5.276 -0.6389  0.1520  0.8314
 5516SOL    HW117989   4.094   5.523   5.339 -0.8509  0.9135  0.2515
 5516SOL    HW217990   4.243   5.518   5.313 -0.7408  0.3254  0.9415
 5517SOL     OW17991   5.427   3.956   3.699  0.1291 -0.6943  0.0482
 5517SOL    HW117992   5.421   4.048   3.724  1.5554 -0.9979  1.7559
 5517SOL    HW217993   5.339   3.932   3.672 -0.3400  1.0689 -0.1010
 5518SOL     OW17994   2.613   4.335  11.833 -0.0392 -0.8112 -0.6506
 5518SOL    HW117995   2.698   4.306  11.799  0.5239 -1.1387  0.9493
 5518SOL    HW217996   2.620   4.322  11.927 -1.9975 -1.1101 -0.5253
 5519SOL     OW17997   7.629   0.069  11.904  0.3709 -0.8498  0.0359
 5519SOL    HW117998   7.720   0.041  11.918  1.0583  0.9127 -0.6431
 5519SOL    HW217999   7.622   0.082  11.810 -0.3535 -0.2454  0.1645
 5520SOL     OW18000   0.717   5.256  12.239 -0.6747  0.2452  0.5922
 5520SOL    HW118001   0.723   5.230  12.331 -0.4566  0.6833  0.7080
 5520SOL    HW218002   0.793   5.312  12.226  0.2392 -1.1414 -0.3057
 5521SOL     OW18003   0.259   2.004   4.563  0.0223  0.0836  0.5354
 5521SOL    HW118004   0.301   1.921   4.544  1.3704  1.2463 -2.1102
 5521SOL    HW218005   0.191   2.013   4.496 -1.8755  0.0536  2.3333
 5522SOL     OW18006   7.455   7.506  10.988 -0.4183  0.1898 -0.2220
 5522SOL    HW118007   7.493   7.577  10.936 -1.3764 -1.0984 -2.9066
 5522SOL    HW218008   7.381   7.546  11.033  0.6814  1.4544  0.5141
 5523SOL     OW18009   6.428   0.032   4.073 -0.0051  0.0847  0.2073
 5523SOL    HW118010   6.355   0.064   4.127  0.4531  1.2530  0.1711
 5523SOL    HW218011   6.500   0.019   4.135  0.2133  0.4474  0.0359
 5524SOL     OW18012   7.791   4.693   7.256 -0.2709  0.5799  0.1200
 5524SOL    HW118013   7.880   4.728   7.269 -0.1105  0.3646 -0.3701
 5524SOL    HW218014   7.763   4.731   7.172 -0.8464  1.0628  0.5267
 5525SOL     OW18015   5.648   7.611   5.606  0.2676  0.5240  1.0250
 5525SOL    HW118016   5.604   7.541   5.653 -1.4407  2.5533  2.7039
 5525SOL    HW218017   5.582   7.643   5.544  0.9115  0.8491  0.4927
 5526SOL     OW18018   5.555   7.649   6.811  0.1378  0.3218  0.6007
 5526SOL    HW118019   5.599   7.700   6.879  0.9419  2.0245 -1.1056
 5526SOL    HW218020   5.476   7.699   6.790  1.6719  1.7983 -2.1218
 5527SOL     OW18021   2.732   5.397   4.036 -0.1286  0.0380  0.0710
 5527SOL    HW118022   2.703   5.488   4.028 -1.0227 -0.1810  0.6278
 5527SOL    HW218023   2.766   5.391   4.126  3.1598  0.6720 -0.9964
 5528SOL     OW18024   2.594   4.248  11.228  0.0065  0.2230 -0.3756
 5528SOL    HW118025   2.625   4.162  11.255  2.3166  0.2111 -2.7245
 5528SOL    HW218026   2.542   4.232  11.149 -1.2655  0.8430  0.2943
 5529SOL     OW18027   2.184   2.196   4.282 -0.2109  0.5326 -0.3446
 5529SOL    HW118028   2.229   2.257   4.224 -0.2832  1.4850  0.5761
 5529SOL    HW218029   2.253   2.138   4.314  0.0382  0.7998 -0.3935
 5530SOL     OW18030   2.011   3.212   1.441  0.1771  0.1707 -0.6693
 5530SOL    HW118031   2.101   3.183   1.455  0.0608 -0.7397 -1.6796
 5530SOL    HW218032   1.959   3.162   1.504  0.2757  0.0241 -0.7032
 5531SOL     OW18033   0.325   7.391   6.324  0.1211 -0.1987 -0.5194
 5531SOL    HW118034   0.400   7.358   6.372 -0.7003 -3.3301 -1.2090
 5531SOL    HW218035   0.256   7.402   6.389 -0.0276 -1.3516 -0.4611
 5532SOL     OW18036   1.057   7.960   0.772  0.1441 -0.5029 -0.0036
 5532SOL    HW118037   1.146   7.992   0.785  0.0382 -0.4379  0.6100
 5532SOL    HW218038   1.004   8.039   0.763  0.3462 -0.5519 -1.8705
 5533SOL     OW18039   5.824   4.773   4.855 -0.0175  1.0294  0.0999
 5533SOL    HW118040   5.883   4.705   4.890  0.8839  1.1325 -1.1502
 5533SOL    HW218041   5.743   4.726   4.836  1.1903 -0.2207 -2.5462
 5534SOL     OW18042   7.252   4.597   3.306 -0.0347  0.1696 -0.3039
 5534SOL    HW118043   7.159   4.615   3.300  0.2173  2.2914  1.1196
 5534SOL    HW218044   7.281   4.644   3.384  1.6856 -3.0117  1.1806
 5535SOL     OW18045   4.215   0.452   5.737  0.2739  0.0015 -0.4203
 5535SOL    HW118046   4.259   0.527   5.696  0.2753  0.6764  0.7947
 5535SOL    HW218047   4.123   0.461   5.710 -0.1649  1.6696  1.3920
 5536SOL     OW18048   0.466   5.840   9.443 -0.1672  0.0266  0.3681
 5536SOL    HW118049   0.529   5.896   9.398  0.2746 -0.6240  0.1716
 5536SOL    HW218050   0.519   5.789   9.505 -0.4777 -0.6440  0.0819
 5537SOL     OW18051   4.504   6.414   9.784  0.0990  0.1486  0.1268
 5537SOL    HW118052   4.489   6.397   9.877  4.2293 -0.2479  0.9217
 5537SOL    HW218053   4.595   6.443   9.780  0.8496 -2.0680 -4.0135
 5538SOL     OW18054   6.208   7.767  12.398  0.0593  0.3166 -0.1852
 5538SOL    HW118055   6.191   7.853  12.359 -0.5528  1.3622  2.2210
 5538SOL    HW218056   6.303   7.758  12.394  0.1307  1.0816 -0.5359
 5539SOL     OW18057   6.530   1.156  12.179 -0.0298 -0.0923 -0.3299
 5539SOL    HW118058   6.552   1.221  12.113  0.4630  0.2604  0.1724
 5539SOL    HW218059   6.614   1.120  12.207  0.2423  2.6200  2.9836
 5540SOL     OW18060   7.209   4.728   1.531  0.3717 -0.6890 -0.1701
 5540SOL    HW118061   7.243   4.667   1.465  1.1558  0.5395 -0.9450
 5540SOL    HW218062   7.261   4.709   1.609 -0.6254 -2.2171  0.1740
 5541SOL     OW18063   1.738   5.574   4.672 -0.5316  0.4522 -0.0421
 5541SOL    HW118064   1.812   5.515   4.659  0.0096  1.2692 -0.7614
 5541SOL    HW218065   1.680   5.557   4.598  0.3707  1.8815 -1.1344
 5542SOL     OW18066   1.361   3.488   6.939 -0.3087  0.7628 -0.7978
 5542SOL    HW118067   1.440   3.459   6.894 -0.4323  1.1603 -1.2837
 5542SOL    HW218068   1.316   3.543   6.875 -0.4753  1.3607 -0.1786
 5543SOL     OW18069   3.089   5.317   2.535  0.3858  0.2737 -0.2268
 5543SOL    HW118070   3.001   5.323   2.573  0.3519  0.9025 -0.3807
 5543SOL    HW218071   3.090   5.384   2.466  1.1438  0.6213  0.1050
 5544SOL     OW18072   0.692   0.877   5.075  0.0780 -0.7227  0.8011
 5544SOL    HW118073   0.620   0.938   5.089  0.6903  0.0953  0.4126
 5544SOL    HW218074   0.654   0.809   5.019 -0.2882 -0.0851  0.2573
 5545SOL     OW18075   0.836   4.155   8.974  0.1879  0.1140  0.2652
 5545SOL    HW118076   0.814   4.099   8.899 -0.1209  0.6139 -0.0185
 5545SOL    HW218077   0.763   4.215   8.981  0.3223  0.2111  0.8375
 5546SOL     OW18078   4.818   4.475   5.163 -0.0159  0.0676 -0.2793
 5546SOL    HW118079   4.902   4.507   5.131  1.1880 -0.0601  2.5336
 5546SOL    HW218080   4.815   4.383   5.134  0.3854  0.2996 -1.0924
 5547SOL     OW18081   7.701   6.274   1.230 -0.3101 -0.0097 -0.1290
 5547SOL    HW118082   7.757   6.275   1.308  1.8587  1.2429 -1.6090
 5547SOL    HW218083   7.615   6.302   1.262  0.6414  0.9620  1.7413
 5548SOL     OW18084   0.331   1.914   4.182  0.4870  0.2137  0.1763
 5548SOL    HW118085   0.424   1.918   4.202  0.1071  2.1649  1.9145
 5548SOL    HW218086   0.320   1.976   4.110  0.3547  0.9354  0.8144
 5549SOL     OW18087   1.534   3.657   0.382  0.2833  0.0099  0.4154
 5549SOL    HW118088   1.617   3.677   0.426  0.1697  0.0421  0.6133
 5549SOL    HW218089   1.500   3.580   0.427  1.0293 -1.0475 -0.7558
 5550SOL     OW18090   7.235   1.526   7.349  0.5056  0.8215  0.1487
 5550SOL    HW118091   7.217   1.470   7.273  2.5394  0.9245 -0.4790
 5550SOL    HW218092   7.325   1.556   7.335  0.8459  1.0544  2.4679
 5551SOL     OW18093   7.249   7.097   5.457 -0.2420  0.1594 -0.0324
 5551SOL    HW118094   7.184   7.045   5.409 -0.2608 -0.3854  0.5653
 5551SOL    HW218095   7.196   7.151   5.516 -0.3183  1.9611 -1.6461
 5552SOL     OW18096   6.103   7.730  10.272  0.0485  0.8355 -0.5196
 5552SOL    HW118097   6.185   7.736  10.223 -0.3230  0.4658 -1.2022
 5552SOL    HW218098   6.072   7.820  10.278  1.2268  1.1745  1.0286
 5553SOL     OW18099   0.498   7.795   6.866 -0.2001 -0.3398 -0.0287
 5553SOL    HW118100   0.515   7.707   6.901  1.0723 -0.1942 -0.2497
 5553SOL    HW218101   0.545   7.797   6.782 -0.0742  0.6033  0.0585
 5554SOL     OW18102   2.092   3.296  11.039 -0.6813 -0.4869  0.1451
 5554SOL    HW118103   2.073   3.283  11.131  1.1220 -0.0103  0.6275
 5554SOL    HW218104   2.051   3.380  11.017  0.5854  0.4165  1.0830
 5555SOL     OW18105   2.921   2.529  11.052  0.4503 -0.1792 -0.2296
 5555SOL    HW118106   2.894   2.613  11.015 -1.1569 -0.1172  0.9645
 5555SOL    HW218107   2.978   2.552  11.126 -0.9789 -0.0472  0.8690
 5556SOL     OW18108   4.382   5.104   7.311  0.6478  0.0523  0.6538
 5556SOL    HW118109   4.382   5.101   7.216  1.0081  0.1446  0.6489
 5556SOL    HW218110   4.351   5.018   7.338  2.5162 -0.7307  0.4669
 5557SOL     OW18111   5.124   0.481   4.208  0.0133  0.5218 -0.2820
 5557SOL    HW118112   5.166   0.396   4.192  1.6094  1.1908  0.1214
 5557SOL    HW218113   5.197   0.542   4.215 -1.0643  1.7669  0.4324
 5558SOL     OW18114   3.447   3.097   3.793  0.1804 -0.0613 -0.7322
 5558SOL    HW118115   3.475   3.023   3.739  2.6265  1.7046 -2.0882
 5558SOL    HW218116   3.375   3.062   3.846  0.2954 -2.9841 -2.2847
 5559SOL     OW18117   6.674   3.950   8.396 -0.1456 -0.1563  0.0755
 5559SOL    HW118118   6.679   3.864   8.438  1.2439  0.2110  0.7173
 5559SOL    HW218119   6.765   3.973   8.377 -0.6818 -0.2739 -3.1914
 5560SOL     OW18120   1.605   2.310   1.768 -0.0438 -0.5352  0.3683
 5560SOL    HW118121   1.689   2.314   1.814  0.3179 -0.5267 -0.2839
 5560SOL    HW218122   1.550   2.257   1.825 -0.1479  0.8907  1.6554
 5561SOL     OW18123   3.513   7.469   9.617 -0.0334 -0.6423  0.5998
 5561SOL    HW118124   3.491   7.471   9.524  2.5372 -4.1869 -0.2996
 5561SOL    HW218125   3.562   7.550   9.632 -1.4398  0.5195 -0.8150
 5562SOL     OW18126   2.983   1.382   4.560 -0.3864 -0.0423  0.0974
 5562SOL    HW118127   2.910   1.344   4.610 -1.2035  0.7552 -0.4663
 5562SOL    HW218128   2.949   1.465   4.526  2.1402  2.6681  3.4941
 5563SOL     OW18129   6.148   1.690   0.534 -0.8632  0.4134 -0.2619
 5563SOL    HW118130   6.082   1.706   0.602 -0.4533  1.4633 -0.0978
 5563SOL    HW218131   6.222   1.652   0.582 -0.3748  1.6301 -0.0070
 5564SOL     OW18132   1.013   0.260   6.951 -0.1453  0.2457  0.2229
 5564SOL    HW118133   1.042   0.350   6.965  1.0507 -0.1867  0.6197
 5564SOL    HW218134   1.037   0.214   7.031  0.8277 -0.8066 -0.6498
 5565SOL     OW18135   5.378   7.397   1.191  0.1700  0.1566  0.1712
 5565SOL    HW118136   5.446   7.444   1.144 -1.1315  1.3970 -0.5353
 5565SOL    HW218137   5.296   7.427   1.152 -0.7769 -1.8386  0.4852
 5566SOL     OW18138   3.704   0.745   3.818 -0.3914  0.4040  0.2664
 5566SOL    HW118139   3.791   0.724   3.784  1.8904  2.4820  3.9846
 5566SOL    HW218140   3.663   0.797   3.749  0.7951 -1.5842 -2.0579
 5567SOL     OW18141   0.108   7.301   9.310  0.2194 -0.6103 -0.3873
 5567SOL    HW118142   0.017   7.298   9.340  0.0849  3.0124  0.0174
 5567SOL    HW218143   0.160   7.278   9.387 -0.2960 -0.8570 -0.1067
 5568SOL     OW18144   3.270   5.138   2.338  0.2925 -0.4932  0.1284
 5568SOL    HW118145   3.285   5.069   2.402 -0.1142 -0.3304  0.3963
 5568SOL    HW218146   3.201   5.192   2.376  2.4760  1.6997  1.2708
 5569SOL     OW18147   5.816   6.865   9.998 -0.6105 -0.3290  0.6542
 5569SOL    HW118148   5.874   6.835  10.069  2.4725 -1.4131 -2.0557
 5569SOL    HW218149   5.764   6.788   9.975  0.8646 -1.0562 -0.4126
 5570SOL     OW18150   6.208   4.302   4.679  0.2156  0.0323  0.0217
 5570SOL    HW118151   6.135   4.259   4.633  0.2072 -1.0321  0.9932
 5570SOL    HW218152   6.165   4.355   4.746  0.3433 -1.2886  1.1754
 5571SOL     OW18153   6.281   6.928   5.969 -0.1245 -0.4427 -0.3326
 5571SOL    HW118154   6.277   6.835   5.946 -0.0726 -0.6509  0.4885
 5571SOL    HW218155   6.374   6.950   5.966 -0.3029  0.2591 -3.1039
 5572SOL     OW18156   4.211   1.053   4.855  0.2231  0.0603 -0.0771
 5572SOL    HW118157   4.123   1.017   4.852  0.0584  0.4900 -0.9235
 5572SOL    HW218158   4.210   1.122   4.788  1.2100  0.0335 -0.1313
 5573SOL     OW18159   2.527   0.304   7.779  0.0429  0.5035  0.1023
 5573SOL    HW118160   2.438   0.283   7.805 -0.1837  0.0320 -0.9784
 5573SOL    HW218161   2.518   0.344   7.693  0.8937  0.1833 -0.1471
 5574SOL     OW18162   2.687   6.951   7.593 -0.1999  0.0934  0.4602
 5574SOL    HW118163   2.629   6.995   7.531  1.0723  1.6114  0.3138
 5574SOL    HW218164   2.750   7.017   7.620  2.3199 -1.8103 -0.3797
 5575SOL     OW18165   1.035   0.998   1.243 -0.3248 -0.5146  0.2466
 5575SOL    HW118166   1.064   1.043   1.164  0.7704  1.4128  1.6666
 5575SOL    HW218167   1.065   0.908   1.232  0.6624 -0.0459 -1.0966
 5576SOL     OW18168   1.625   5.562   2.547  0.1350  0.2827 -0.5594
 5576SOL    HW118169   1.565   5.630   2.518  0.7116  0.4202 -1.4793
 5576SOL    HW218170   1.573   5.505   2.604 -0.5054  1.1413 -0.2749
 5577SOL     OW18171   7.652   3.063   3.306  0.0361 -0.6564 -0.3219
 5577SOL    HW118172   7.747   3.057   3.313  0.4160  3.1447 -0.1637
 5577SOL    HW218173   7.634   3.048   3.213  1.4770  3.1074 -1.3909
 5578SOL     OW18174   3.545   4.589   6.763  0.1378 -0.0354 -0.0532
 5578SOL    HW118175   3.625   4.536   6.761  0.3246  0.1624  1.3459
 5578SOL    HW218176   3.493   4.554   6.691  0.9766 -0.9771 -0.2410
 5579SOL     OW18177   0.304   5.957  11.835 -0.0843 -0.0178 -0.5828
 5579SOL    HW118178   0.362   5.972  11.761 -0.4706 -0.3939 -0.9720
 5579SOL    HW218179   0.294   5.861  11.839  0.4102 -0.0386  0.3290
 5580SOL     OW18180   5.377   4.128   4.605 -0.6365 -0.4233 -0.3857
 5580SOL    HW118181   5.422   4.043   4.599  1.3471  0.2508  2.6928
 5580SOL    HW218182   5.413   4.179   4.532 -0.7114 -1.7245 -1.3621
 5581SOL     OW18183   4.130   6.944   7.577  0.1710  0.1903 -0.4314
 5581SOL    HW118184   4.062   7.011   7.589 -1.0203 -0.7842 -1.4655
 5581SOL    HW218185   4.144   6.909   7.665  0.5024  1.4872  0.0566
 5582SOL     OW18186   5.354   6.888  11.653  0.0745 -0.0665 -0.4056
 5582SOL    HW118187   5.358   6.858  11.562 -1.1553  0.3720 -0.6320
 5582SOL    HW218188   5.262   6.877  11.677  0.7397 -2.1167  1.4960
 5583SOL     OW18189   3.318   4.091   8.351  0.2805  0.6587 -0.0568
 5583SOL    HW118190   3.338   4.125   8.438 -1.7809 -0.2844  0.8571
 5583SOL    HW218191   3.304   3.997   8.365 -0.5968  0.5807 -1.2886
 5584SOL     OW18192   7.858   4.862   2.372 -0.0108 -0.4307  0.4343
 5584SOL    HW118193   7.940   4.863   2.323  0.6562 -0.9517  1.4922
 5584SOL    HW218194   7.880   4.901   2.457 -0.9836 -0.1249  0.5695
 5585SOL     OW18195   4.156   0.852  10.932  0.0586  0.0049 -0.2640
 5585SOL    HW118196   4.191   0.886  11.015  1.0758 -1.9968  0.2037
 5585SOL    HW218197   4.171   0.922  10.869  2.7742  0.1886  0.4613
 5586SOL     OW18198   2.494   5.227   5.274  0.0330  0.3411 -0.4423
 5586SOL    HW118199   2.420   5.265   5.226 -1.9944 -1.4726  1.0275
 5586SOL    HW218200   2.529   5.160   5.215 -1.8992 -1.2905  0.1204
 5587SOL     OW18201   3.161   0.071   0.599  0.6274 -0.4589 -0.2924
 5587SOL    HW118202   3.080   0.106   0.561  0.2141 -1.2311 -0.1435
 5587SOL    HW218203   3.210   0.149   0.627 -0.3087  0.0042  0.1185
 5588SOL     OW18204   6.102   0.760  11.298  0.5011  0.1938 -0.2499
 5588SOL    HW118205   6.037   0.762  11.228 -0.3316 -3.2095  0.2402
 5588SOL    HW218206   6.177   0.714  11.259  1.5131  1.5204  0.0639
 5589SOL     OW18207   3.663   4.204  11.270 -0.3989 -0.6459 -0.4320
 5589SOL    HW118208   3.590   4.237  11.321  0.6990  0.8873  0.2246
 5589SOL    HW218209   3.740   4.224  11.323  0.4830 -2.6716 -0.8616
 5590SOL     OW18210   6.755   7.142   5.447 -0.0870 -0.1536 -0.4362
 5590SOL    HW118211   6.832   7.155   5.393  0.1015  1.0375  0.0913
 5590SOL    HW218212   6.789   7.115   5.532 -0.4014 -2.5404 -0.9797
 5591SOL     OW18213   2.731   2.295   5.591  0.0070 -0.7890  0.2393
 5591SOL    HW118214   2.704   2.286   5.683 -3.0800  1.9682 -0.2017
 5591SOL    HW218215   2.694   2.218   5.548 -2.8114  0.1908  0.6477
 5592SOL     OW18216   1.505   3.536   6.237  0.9670  0.2663  0.2489
 5592SOL    HW118217   1.496   3.443   6.257  1.0881  0.5867  1.9453
 5592SOL    HW218218   1.415   3.567   6.224  0.9458 -0.1350 -0.5617
 5593SOL     OW18219   3.581   4.134   3.742 -0.0370  0.6975 -0.0315
 5593SOL    HW118220   3.571   4.189   3.819 -0.5576 -1.7701  1.7717
 5593SOL    HW218221   3.663   4.087   3.756  0.0740  0.5060 -1.2087
 5594SOL     OW18222   7.947   3.963   6.878 -0.2253 -0.3848  0.0467
 5594SOL    HW118223   7.999   3.886   6.858  2.3710  1.7889 -2.5596
 5594SOL    HW218224   7.904   3.984   6.795 -0.5035  1.1957  0.5531
 5595SOL     OW18225   6.699   1.201   9.671 -0.1651  0.3561  0.6988
 5595SOL    HW118226   6.701   1.113   9.709 -1.5040 -0.7995 -1.6444
 5595SOL    HW218227   6.619   1.241   9.705 -0.1246  0.2533  0.9140
 5596SOL     OW18228   6.620   3.639   3.308 -0.7407 -0.0455 -0.3064
 5596SOL    HW118229   6.634   3.717   3.254 -0.2604 -0.1179 -0.2986
 5596SOL    HW218230   6.562   3.584   3.256 -1.1283  0.3389 -0.2874
 5597SOL     OW18231   3.348   6.001   1.762 -0.4859 -0.4697  0.1967
 5597SOL    HW118232   3.270   6.014   1.815 -0.9736 -1.5652 -0.2227
 5597SOL    HW218233   3.352   6.079   1.706  0.0536  0.7134  1.8154
 5598SOL     OW18234   6.441   4.209  10.656 -0.0293  0.1229 -0.5971
 5598SOL    HW118235   6.425   4.154  10.733  1.4201  0.3425 -0.1147
 5598SOL    HW218236   6.534   4.197  10.637  0.5027  2.8389 -0.0940
 5599SOL     OW18237   5.245   6.375   6.581  0.0468  0.6406 -0.0085
 5599SOL    HW118238   5.184   6.443   6.612 -2.7511 -1.6168 -0.1453
 5599SOL    HW218239   5.240   6.382   6.485 -2.5035 -1.4177 -0.1330
 5600SOL     OW18240   6.897   0.036   7.763 -0.2644  0.0777 -0.5259
 5600SOL    HW118241   6.968   0.069   7.818 -0.7110  0.1368  0.0223
 5600SOL    HW218242   6.912   0.077   7.678  0.1637  0.3597 -0.3192
 5601SOL     OW18243   0.757   4.422   8.910 -0.4262 -0.7669  0.6393
 5601SOL    HW118244   0.701   4.416   8.987 -0.3503  1.1332  0.8989
 5601SOL    HW218245   0.778   4.515   8.903 -0.1268 -0.9438 -1.4759
 5602SOL     OW18246   2.138   2.911   2.458  0.5373  0.4331  0.5923
 5602SOL    HW118247   2.081   2.834   2.459  0.5534  0.4182  1.8844
 5602SOL    HW218248   2.190   2.904   2.538  2.8170  0.1316 -0.8516
 5603SOL     OW18249   3.755   5.475  10.113 -0.5715 -0.3830 -0.2932
 5603SOL    HW118250   3.766   5.545  10.177 -1.0541 -1.0297  0.5220
 5603SOL    HW218251   3.711   5.517  10.039 -1.1922  0.1072  0.3374
 5604SOL     OW18252   7.600   2.854   2.231  0.9854 -0.2253 -0.0974
 5604SOL    HW118253   7.681   2.874   2.278  1.3918 -0.5705 -0.6336
 5604SOL    HW218254   7.591   2.759   2.239  0.5407 -0.1697  0.1006
 5605SOL     OW18255   1.896   1.005   1.331 -0.3213 -0.3571  0.1757
 5605SOL    HW118256   1.832   1.065   1.292  1.7355  1.3756 -0.7708
 5605SOL    HW218257   1.903   1.032   1.422 -0.0962  0.2402 -0.0150
 5606SOL     OW18258   6.740   4.640   7.498  0.1829 -0.3346 -0.0434
 5606SOL    HW118259   6.799   4.568   7.519 -0.4559 -0.6819  0.6038
 5606SOL    HW218260   6.709   4.671   7.583 -0.2330  0.1242 -0.3563
 5607SOL     OW18261   6.345   4.544  10.294  0.0739 -0.2410 -0.0069
 5607SOL    HW118262   6.251   4.558  10.289  0.0061 -0.9258 -0.9463
 5607SOL    HW218263   6.368   4.503  10.210  1.0166 -1.1059  0.6413
 5608SOL     OW18264   3.422   3.919  11.638  0.2502  0.3118  0.3863
 5608SOL    HW118265   3.423   4.013  11.621 -0.3366 -0.0654 -2.1905
 5608SOL    HW218266   3.483   3.882  11.574  0.3969 -1.0818  1.2797
 5609SOL     OW18267   6.693   2.392   9.015 -0.1230 -0.2591 -0.1005
 5609SOL    HW118268   6.729   2.467   8.969  2.1918 -1.3729 -0.2790
 5609SOL    HW218269   6.682   2.422   9.105 -0.2241  0.5751 -0.3857
 5610SOL     OW18270   7.537   5.413   7.775 -0.0570 -0.1825  0.0711
 5610SOL    HW118271   7.549   5.499   7.816 -1.6870 -0.0275  0.2762
 5610SOL    HW218272   7.616   5.401   7.723 -0.2684  1.9570 -0.8606
 5611SOL     OW18273   0.249   5.253   6.680 -0.5745  0.3052  0.3575
 5611SOL    HW118274   0.338   5.253   6.646 -1.0309 -1.9146 -1.0605
 5611SOL    HW218275   0.233   5.343   6.707  1.7385  0.9653 -0.2707
 5612SOL     OW18276   6.852   1.373   5.320  0.2733  0.0371  0.0456
 5612SOL    HW118277   6.895   1.298   5.360  0.9575  1.4588  2.1817
 5612SOL    HW218278   6.766   1.377   5.361 -0.9567 -1.1822 -2.1976
 5613SOL     OW18279   6.021   1.891   9.025  0.0330 -0.3935  0.2213
 5613SOL    HW118280   6.106   1.893   8.982 -0.2960  1.0550 -0.4294
 5613SOL    HW218281   5.993   1.800   9.020  2.1209 -1.1802  1.6568
 5614SOL     OW18282   3.275   5.710   4.515  0.2534  0.3300  0.0693
 5614SOL    HW118283   3.325   5.661   4.580  1.9524  0.2248 -1.2443
 5614SOL    HW218284   3.276   5.800   4.548  0.0726  0.0888  0.7650
 5615SOL     OW18285   2.716   7.368   9.328  0.1049 -0.3079 -0.3382
 5615SOL    HW118286   2.658   7.365   9.252  1.2599  0.7786 -1.3265
 5615SOL    HW218287   2.756   7.455   9.324  0.0286 -0.1353  1.6724
 5616SOL     OW18288   5.412   4.505   5.952  0.1497  0.3457  0.2993
 5616SOL    HW118289   5.371   4.591   5.964 -2.2131 -0.8914  1.9894
 5616SOL    HW218290   5.340   4.449   5.922  1.2903 -1.3492  0.6120
 5617SOL     OW18291   5.472   7.891   9.991  0.4156 -0.7600  0.5019
 5617SOL    HW118292   5.551   7.870   9.941 -0.4630  0.7727 -1.6753
 5617SOL    HW218293   5.400   7.871   9.931 -0.8552 -1.3269  2.1336
 5618SOL     OW18294   5.147   2.374   2.837  0.4909  0.1423 -0.1856
 5618SOL    HW118295   5.077   2.322   2.798 -0.3264  0.8848  0.2371
 5618SOL    HW218296   5.163   2.333   2.922 -1.2396  1.4311  0.8269
 5619SOL     OW18297   5.318   0.649   4.271 -0.3801 -0.0176  0.2464
 5619SOL    HW118298   5.349   0.729   4.228 -0.9475  0.1553  0.1580
 5619SOL    HW218299   5.398   0.607   4.302 -0.0583  0.4722  0.1001
 5620SOL     OW18300   4.343   3.269   7.584 -0.0032 -0.0152  0.3621
 5620SOL    HW118301   4.300   3.271   7.498  0.3852 -0.7394  0.1432
 5620SOL    HW218302   4.272   3.262   7.647 -0.5662  3.7006  0.3604
 5621SOL     OW18303   4.884   7.268   4.241  0.3677  0.0283 -0.7490
 5621SOL    HW118304   4.934   7.186   4.242 -0.8796 -0.8327 -2.5131
 5621SOL    HW218305   4.819   7.257   4.311  1.5035  0.4365  0.4122
 5622SOL     OW18306   2.257   2.134  11.124  0.0401  0.3200 -0.0188
 5622SOL    HW118307   2.162   2.140  11.130 -0.1902 -2.0172 -0.2587
 5622SOL    HW218308   2.284   2.213  11.077 -1.8497  0.6622 -0.5988
 5623SOL     OW18309   2.381   2.368   1.021 -0.5640  0.3106  0.0466
 5623SOL    HW118310   2.364   2.278   0.991 -1.0679  0.7460 -1.0081
 5623SOL    HW218311   2.448   2.401   0.961 -1.6183  1.2199 -0.6488
 5624SOL     OW18312   0.278   1.521   9.118 -0.2305  0.0151 -0.6888
 5624SOL    HW118313   0.264   1.599   9.173 -0.1000  0.4618 -1.2739
 5624SOL    HW218314   0.195   1.473   9.124  0.0126 -0.2986  0.4294
 5625SOL     OW18315   1.833   3.404   9.294 -0.7324  0.6167 -0.0753
 5625SOL    HW118316   1.847   3.413   9.388 -1.9092 -0.0344  0.1783
 5625SOL    HW218317   1.909   3.446   9.254 -0.5478  1.4948  1.1537
 5626SOL     OW18318   2.412   1.386  10.484 -0.4389 -0.0977 -0.3014
 5626SOL    HW118319   2.508   1.391  10.484 -0.3579 -1.0757 -1.5540
 5626SOL    HW218320   2.385   1.457  10.425 -0.4443 -0.2943 -0.5363
 5627SOL     OW18321   3.465   7.353   6.354 -0.1349  0.4297  0.1962
 5627SOL    HW118322   3.538   7.401   6.314 -0.1851  2.0129  1.8597
 5627SOL    HW218323   3.497   7.330   6.441 -1.2084  0.0631  0.5041
 5628SOL     OW18324   7.149   7.370   4.855 -0.3168 -0.6701 -0.2737
 5628SOL    HW118325   7.108   7.403   4.775  0.9031 -0.6533 -0.9136
 5628SOL    HW218326   7.192   7.447   4.894 -0.1712 -0.8527 -0.0670
 5629SOL     OW18327   0.937   4.757   2.374 -0.1295 -0.1201 -0.3263
 5629SOL    HW118328   0.925   4.771   2.468  0.1422  1.6244 -0.5211
 5629SOL    HW218329   1.029   4.776   2.358  0.0297 -1.2314 -0.8275
 5630SOL     OW18330   7.366   6.087   3.062  0.4568  0.0023  0.1471
 5630SOL    HW118331   7.362   6.092   2.967 -0.5442 -1.5307  0.0718
 5630SOL    HW218332   7.387   6.176   3.090 -0.0432  0.6561 -1.4641
 5631SOL     OW18333   1.939   0.161  10.247 -0.3126 -0.2230 -0.0785
 5631SOL    HW118334   1.844   0.155  10.235 -0.4580  1.4328 -0.0345
 5631SOL    HW218335   1.951   0.238  10.303  1.0308 -0.7556  0.4040
 5632SOL     OW18336   3.381   7.780  11.466  0.3291  0.3235 -0.6378
 5632SOL    HW118337   3.360   7.832  11.388 -0.4545  1.2073  0.1342
 5632SOL    HW218338   3.297   7.740  11.491  0.6801 -0.3636 -0.5350
 5633SOL     OW18339   5.009   2.186   3.027  0.5688 -0.1970 -0.0484
 5633SOL    HW118340   5.007   2.133   2.947 -4.4314  1.1187 -1.1149
 5633SOL    HW218341   4.917   2.198   3.050  1.6893  2.2458  4.1257
 5634SOL     OW18342   0.257   0.361   6.952  0.3266 -0.0029 -0.4828
 5634SOL    HW118343   0.254   0.452   6.980 -0.8216 -0.0840 -0.2847
 5634SOL    HW218344   0.345   0.331   6.974  0.4152  0.7943  0.2721
 5635SOL     OW18345   3.174   4.499   2.432 -0.3269  0.0743  0.3888
 5635SOL    HW118346   3.248   4.558   2.444  0.1377  0.4816 -3.1535
 5635SOL    HW218347   3.199   4.419   2.478  2.0414  0.4503 -0.1288
 5636SOL     OW18348   0.919   4.187   1.922 -0.8161 -0.0814  0.2039
 5636SOL    HW118349   0.898   4.280   1.908 -0.9724 -0.3999 -2.0432
 5636SOL    HW218350   0.835   4.146   1.941 -1.7738 -0.5470 -4.0293
 5637SOL     OW18351   1.058   2.967   8.342 -0.1951 -0.2319  0.1953
 5637SOL    HW118352   1.103   2.900   8.392 -1.0507 -0.7017  0.3475
 5637SOL    HW218353   1.054   3.043   8.401 -1.4580 -0.8748  0.9727
 5638SOL     OW18354   0.622   7.091  12.294  0.5204  0.3394  0.4378
 5638SOL    HW118355   0.606   7.026  12.227 -1.1564 -0.3145  1.4283
 5638SOL    HW218356   0.537   7.131  12.310  1.5246  3.0150 -0.3184
 5639SOL     OW18357   5.968   4.829  10.962 -0.3997 -0.4507  0.1160
 5639SOL    HW118358   5.954   4.736  10.948  1.5975 -0.9050  0.7796
 5639SOL    HW218359   5.979   4.865  10.874 -0.2299 -1.0250 -0.1030
 5640SOL     OW18360   2.545   2.311   6.920 -0.0899 -0.2472  0.0458
 5640SOL    HW118361   2.466   2.297   6.973 -2.4827 -0.4284 -3.2930
 5640SOL    HW218362   2.520   2.378   6.857  2.3964 -0.4669 -1.2957
 5641SOL     OW18363   3.482   3.052   0.699  0.2104 -0.6752 -0.3356
 5641SOL    HW118364   3.393   3.074   0.673  0.2705 -0.2362 -0.1800
 5641SOL    HW218365   3.475   2.967   0.742  0.2425 -1.9340 -2.6425
 5642SOL     OW18366   4.628   6.469  11.803 -0.4873 -0.0976 -0.1702
 5642SOL    HW118367   4.655   6.417  11.879  0.8939 -0.3823 -0.8246
 5642SOL    HW218368   4.647   6.559  11.828 -1.2529 -0.0545  0.2996
 5643SOL     OW18369   2.944   0.901   8.537 -0.1913  0.3843  0.3208
 5643SOL    HW118370   2.949   0.823   8.592 -0.6214 -0.6667 -1.1003
 5643SOL    HW218371   2.856   0.900   8.501  1.0944 -1.0325 -3.2755
 5644SOL     OW18372   1.262   5.367   7.379 -0.5227 -0.2458 -0.0962
 5644SOL    HW118373   1.277   5.292   7.436 -0.1636  0.5062  0.8073
 5644SOL    HW218374   1.325   5.356   7.308 -0.4485 -0.7779  0.0470
 5645SOL     OW18375   2.186   7.569   8.811 -0.3434  0.2755 -0.0996
 5645SOL    HW118376   2.215   7.628   8.880 -2.6136  0.0428  1.1399
 5645SOL    HW218377   2.218   7.483   8.838 -1.0359  0.2211  0.5595
 5646SOL     OW18378   2.302   3.996  11.894  0.0284 -0.4641  0.1492
 5646SOL    HW118379   2.387   3.956  11.872 -0.0952  0.3626 -2.0987
 5646SOL    HW218380   2.318   4.042  11.976  2.3360  1.1926 -1.1124
 5647SOL     OW18381   7.874   4.693  10.332  0.4341  0.0879 -0.2305
 5647SOL    HW118382   7.960   4.734  10.327 -0.4329  2.0866  0.1649
 5647SOL    HW218383   7.850   4.697  10.424 -0.2651 -0.0534 -0.3998
 5648SOL     OW18384   2.650   5.662  12.076  0.1862 -0.0122 -0.0638
 5648SOL    HW118385   2.669   5.713  12.155 -1.1232 -0.6473  0.6959
 5648SOL    HW218386   2.725   5.677  12.019  1.3808  0.0979  1.4884
 5649SOL     OW18387   7.411   1.813   5.795  0.1613  0.0069  0.1515
 5649SOL    HW118388   7.427   1.817   5.889  0.2511 -1.8582  0.2408
 5649SOL    HW218389   7.368   1.729   5.781  1.3402 -0.3509 -1.6445
 5650SOL     OW18390   7.341   5.196   5.520  0.3090 -0.2359 -0.0836
 5650SOL    HW118391   7.380   5.246   5.591  0.7082  1.2388 -1.2945
 5650SOL    HW218392   7.416   5.156   5.475  0.5041  2.1575 -2.0823
 5651SOL     OW18393   0.113   7.329   9.778  0.4870 -0.0940  0.2847
 5651SOL    HW118394   0.143   7.409   9.735  0.8960 -0.2606  0.2472
 5651SOL    HW218395   0.027   7.311   9.739  0.6246  0.0402 -0.0918
 5652SOL     OW18396   2.132   7.068   2.195 -0.3877 -0.3132  0.3610
 5652SOL    HW118397   2.206   7.035   2.246  0.7241 -1.0311 -1.6034
 5652SOL    HW218398   2.055   7.024   2.232  0.5952 -2.1478  0.3215
 5653SOL     OW18399   7.219   5.872  12.067  0.2287 -0.0145 -0.3392
 5653SOL    HW118400   7.158   5.935  12.028  0.4561  1.7155  1.8506
 5653SOL    HW218401   7.198   5.788  12.025 -1.0274  1.2397 -2.3853
 5654SOL     OW18402   7.926   1.583   5.948 -0.0161  0.0191  0.3394
 5654SOL    HW118403   7.988   1.654   5.966  1.2525 -1.4047  1.8503
 5654SOL    HW218404   7.978   1.515   5.907 -0.5682 -1.1616  1.5244
 5655SOL     OW18405   2.603   4.574  12.058 -0.4407  0.6604 -0.1266
 5655SOL    HW118406   2.622   4.484  12.083 -0.1096  0.7441 -0.0601
 5655SOL    HW218407   2.533   4.568  11.994  1.4295  0.1266 -2.2502
 5656SOL     OW18408   3.992   3.769   5.093  0.1368 -0.0608 -0.5014
 5656SOL    HW118409   3.999   3.712   5.170  0.1388 -0.3296 -0.6988
 5656SOL    HW218410   3.900   3.765   5.069  0.0701  0.2940 -0.3105
 5657SOL     OW18411   6.760   7.196   2.599  0.0853 -0.5160  0.3385
 5657SOL    HW118412   6.743   7.148   2.518 -2.0610 -0.4420  0.6922
 5657SOL    HW218413   6.685   7.176   2.655 -0.1448  2.0678  1.0571
 5658SOL     OW18414   3.726   5.097   5.142 -0.0933 -0.0685 -0.0301
 5658SOL    HW118415   3.741   5.191   5.151 -0.9082 -0.0993  2.3569
 5658SOL    HW218416   3.658   5.089   5.075 -0.1228  1.0657 -0.1450
 5659SOL     OW18417   0.582   0.069  11.072  0.0981 -0.3938  0.1152
 5659SOL    HW118418   0.645   0.024  11.016  1.1190  0.2347  0.7258
 5659SOL    HW218419   0.635   0.125  11.128 -0.9640 -0.3257  1.0984
 5660SOL     OW18420   6.085   4.819  11.301 -0.0571 -0.1032 -0.0557
 5660SOL    HW118421   6.075   4.732  11.340 -1.2750  0.0879  0.1021
 5660SOL    HW218422   6.113   4.874  11.374  1.0577 -0.4183 -0.2323
 5661SOL     OW18423   1.330   5.983   7.457 -0.1575 -0.0149 -0.0619
 5661SOL    HW118424   1.242   6.010   7.431  0.2980  2.5083  0.7411
 5661SOL    HW218425   1.315   5.910   7.518 -1.6956  0.4666  0.1904
 5662SOL     OW18426   7.309   7.636   7.311 -0.1903 -0.2931 -0.0923
 5662SOL    HW118427   7.233   7.607   7.260 -0.5510  1.4296 -0.6159
 5662SOL    HW218428   7.384   7.618   7.255 -0.1931 -1.8492  0.3565
 5663SOL     OW18429   4.656   3.444   0.542 -0.1015  0.4163  0.1922
 5663SOL    HW118430   4.573   3.482   0.512 -0.0334  0.6682  0.3172
 5663SOL    HW218431   4.630   3.377   0.605 -0.2383 -0.0132 -0.3108
 5664SOL     OW18432   4.177   3.798   1.835  0.1648 -0.6461 -0.3072
 5664SOL    HW118433   4.134   3.883   1.837 -0.4096 -0.8165 -2.6264
 5664SOL    HW218434   4.229   3.795   1.915 -0.1511  1.6771  0.0400
 5665SOL     OW18435   5.561   0.475   6.517  0.0163 -0.2425  0.3242
 5665SOL    HW118436   5.596   0.529   6.445  0.4137 -0.7361  0.1379
 5665SOL    HW218437   5.555   0.388   6.479 -0.1207 -0.4313  0.7850
 5666SOL     OW18438   2.951   7.565  10.828 -0.1044  0.4914 -0.4178
 5666SOL    HW118439   2.999   7.619  10.891  0.3789  0.4909 -0.7777
 5666SOL    HW218440   2.918   7.492  10.879  0.9327  0.0871 -0.3029
 5667SOL     OW18441   4.785   4.994  11.124 -0.0469 -0.5508 -0.0650
 5667SOL    HW118442   4.803   4.920  11.182 -1.4303  0.4486  1.7668
 5667SOL    HW218443   4.740   4.956  11.049 -0.0671 -1.6536  0.4824
 5668SOL     OW18444   0.516   4.222   9.423 -0.1973 -0.1904  0.8845
 5668SOL    HW118445   0.506   4.243   9.516  2.5219  0.5611  1.1137
 5668SOL    HW218446   0.541   4.130   9.422 -1.4343 -0.5405  0.7630
 5669SOL     OW18447   1.586   0.497   9.917  0.0598  0.0411 -0.3025
 5669SOL    HW118448   1.505   0.460   9.953  0.1953  1.3639  1.4898
 5669SOL    HW218449   1.656   0.443   9.954  0.1579  0.9820  0.9530
 5670SOL     OW18450   5.207   3.547   7.830  0.3996  0.1548  0.2616
 5670SOL    HW118451   5.291   3.573   7.791  0.4655 -0.5116 -0.0708
 5670SOL    HW218452   5.190   3.461   7.792  0.5029 -0.5613  1.7817
 5671SOL     OW18453   4.822   4.667  12.440 -0.5251 -0.2882  0.3729
 5671SOL    HW118454   4.752   4.692  12.380 -0.8820  0.3733  1.0501
 5671SOL    HW218455   4.790   4.692  12.526  0.7748  0.5521  0.6413
 5672SOL     OW18456   3.224   0.164   8.304 -0.0311  0.0996  0.0723
 5672SOL    HW118457   3.182   0.108   8.239 -0.7639 -0.9851  1.4057
 5672SOL    HW218458   3.316   0.169   8.277  0.0098 -1.6261 -0.1890
 5673SOL     OW18459   7.563   3.264   2.125  0.3787 -0.0547  0.3722
 5673SOL    HW118460   7.476   3.237   2.154  0.6799 -0.6987  0.6999
 5673SOL    HW218461   7.555   3.357   2.106 -0.1897  0.0505  1.1236
 5674SOL     OW18462   1.724   3.986  11.848  0.3024  0.7935 -0.4113
 5674SOL    HW118463   1.719   4.057  11.912  1.6683  1.2795 -0.7888
 5674SOL    HW218464   1.738   3.907  11.900  3.8760  1.4762 -0.0770
 5675SOL     OW18465   7.845   1.353   2.278 -0.2694  0.0479  0.1316
 5675SOL    HW118466   7.813   1.323   2.363 -2.3436  1.7961  0.0461
 5675SOL    HW218467   7.892   1.277   2.242 -0.7224 -1.2495  2.1312
 5676SOL     OW18468   2.177   3.722  11.996  0.0414 -0.1908 -0.2893
 5676SOL    HW118469   2.215   3.808  12.015 -1.7630  1.3027 -2.8984
 5676SOL    HW218470   2.103   3.714  12.056 -0.0967  0.3377 -0.3857
 5677SOL     OW18471   5.702   7.071   7.041  0.3062 -0.6086 -0.2522
 5677SOL    HW118472   5.719   7.112   7.126 -2.1791 -0.7792  0.3953
 5677SOL    HW218473   5.788   7.066   6.999  1.2922  1.4295  1.3602
 5678SOL     OW18474   6.232   1.445   7.725 -0.5073  0.0076  0.1925
 5678SOL    HW118475   6.156   1.454   7.666 -0.2894  1.1766  0.0519
 5678SOL    HW218476   6.256   1.353   7.719 -1.1242 -0.1143 -0.7744
 5679SOL     OW18477   6.729   7.302  12.252  0.3415  0.2720  0.0502
 5679SOL    HW118478   6.711   7.247  12.176 -0.6428 -2.1173  1.8907
 5679SOL    HW218479   6.806   7.264  12.293 -1.4216 -1.0807  2.3899
 5680SOL     OW18480   4.005   1.355   0.359  0.0785  0.0776  0.2946
 5680SOL    HW118481   4.092   1.381   0.330 -0.0301 -0.4523 -0.5453
 5680SOL    HW218482   4.020   1.303   0.439  0.6225 -0.8562 -0.3921
 5681SOL     OW18483   3.358   1.640   1.206 -0.6155 -0.0616 -0.3179
 5681SOL    HW118484   3.438   1.622   1.254 -0.7734  2.4989  1.1284
 5681SOL    HW218485   3.379   1.715   1.151 -2.4125  2.0336  1.6101
 5682SOL     OW18486   2.301   4.696   2.425  0.2746  0.1471  0.2202
 5682SOL    HW118487   2.262   4.640   2.358  3.2737 -1.4301 -0.3775
 5682SOL    HW218488   2.284   4.785   2.395 -1.0401 -0.4934 -1.0396
 5683SOL     OW18489   0.009   3.925   3.016  0.1944  0.1024 -0.4408
 5683SOL    HW118490   0.088   3.917   2.962  1.3234  2.1779  0.7583
 5683SOL    HW218491   0.042   3.935   3.106 -1.4388  0.5142  0.1563
 5684SOL     OW18492   7.666   7.680  11.724 -0.2642 -0.2899 -0.6823
 5684SOL    HW118493   7.736   7.715  11.779  0.4247 -1.5742 -0.7289
 5684SOL    HW218494   7.628   7.758  11.683  0.2007  0.5494  0.4294
 5685SOL     OW18495   0.703   6.131   3.707 -0.3960  0.5515 -0.1312
 5685SOL    HW118496   0.735   6.220   3.691 -0.7058  0.8203  0.7213
 5685SOL    HW218497   0.781   6.076   3.701 -0.3651  0.7074 -1.8344
 5686SOL     OW18498   3.521   7.911  10.805 -0.0166 -0.0999  0.0556
 5686SOL    HW118499   3.468   7.839  10.772  0.2583 -0.3084  0.0672
 5686SOL    HW218500   3.465   7.955  10.868 -1.3228  1.5147 -2.0800
 5687SOL     OW18501   0.852   1.903   6.292 -0.6181 -0.3662  0.1153
 5687SOL    HW118502   0.900   1.852   6.226 -0.5489 -0.9812  0.6313
 5687SOL    HW218503   0.776   1.937   6.244 -1.2056 -1.7918 -0.0170
 5688SOL     OW18504   2.679   0.731  12.240 -0.9643 -0.1374  0.2231
 5688SOL    HW118505   2.674   0.823  12.214 -2.2182 -0.0292  0.7615
 5688SOL    HW218506   2.658   0.732  12.333  3.0384 -0.5543  1.3262
 5689SOL     OW18507   3.441   5.986  12.101 -0.3124 -0.0630 -0.3862
 5689SOL    HW118508   3.356   5.945  12.084 -0.3169  0.0281 -0.5873
 5689SOL    HW218509   3.419   6.077  12.123 -0.2849 -0.1045 -0.1903
 5690SOL     OW18510   0.333   6.182   8.113 -0.4235 -0.0701  0.0866
 5690SOL    HW118511   0.240   6.163   8.128 -0.8321 -0.2051 -2.2204
 5690SOL    HW218512   0.360   6.119   8.047  0.3995  1.9873 -1.6933
 5691SOL     OW18513   2.102   4.688   4.842 -0.5910  0.6784  0.2237
 5691SOL    HW118514   2.071   4.759   4.786 -2.6086 -0.8508 -0.7296
 5691SOL    HW218515   2.198   4.693   4.836 -0.6387  3.4069  0.4133
 5692SOL     OW18516   4.887   0.738   2.424 -0.1423 -0.5737 -0.1352
 5692SOL    HW118517   4.889   0.786   2.341 -0.5544 -0.7737 -0.2628
 5692SOL    HW218518   4.880   0.805   2.491 -2.0619 -0.4947 -0.3783
 5693SOL     OW18519   5.930   1.975   1.772 -0.0821 -0.1196 -0.1916
 5693SOL    HW118520   5.908   1.893   1.816 -0.1745 -0.3200 -0.6017
 5693SOL    HW218521   5.994   1.950   1.705  2.0292  0.5713  1.4691
 5694SOL     OW18522   3.084   6.207  10.398 -0.2419 -0.0688  0.7459
 5694SOL    HW118523   3.031   6.263  10.454 -1.2309 -0.9462  0.7364
 5694SOL    HW218524   3.038   6.206  10.314  0.4580  0.1177  0.3508
 5695SOL     OW18525   1.003   3.705  12.322  0.8059  0.5697 -0.0061
 5695SOL    HW118526   1.085   3.726  12.277  1.8484 -1.3788  0.8375
 5695SOL    HW218527   1.030   3.693  12.414  0.1444 -2.6747 -0.1151
 5696SOL     OW18528   1.347   7.902   8.876 -0.0987  0.6241 -1.0581
 5696SOL    HW118529   1.417   7.949   8.921 -0.6514  1.7019 -1.3007
 5696SOL    HW218530   1.272   7.909   8.936 -0.0083 -0.5588 -0.7772
 5697SOL     OW18531   3.018   6.349   7.718 -0.3103  0.1334 -0.4857
 5697SOL    HW118532   3.032   6.374   7.810 -0.5208  0.4931 -0.5502
 5697SOL    HW218533   2.955   6.276   7.723  2.3953 -2.3914 -0.1009
 5698SOL     OW18534   5.666   5.732   4.673  0.2548  0.0927 -0.4261
 5698SOL    HW118535   5.648   5.645   4.638  0.2195  0.7986 -2.2530
 5698SOL    HW218536   5.754   5.752   4.640  0.3460  0.6629  0.1639
 5699SOL     OW18537   0.851   4.787   6.428 -0.5546  0.3071 -0.3915
 5699SOL    HW118538   0.859   4.787   6.523  0.7414 -0.9985 -0.4601
 5699SOL    HW218539   0.771   4.736   6.411 -0.4258 -0.0326 -0.0058
 5700SOL     OW18540   0.641   5.847   9.814  0.2510 -0.0463 -0.2327
 5700SOL    HW118541   0.623   5.806   9.729  0.4452  0.4860 -0.5347
 5700SOL    HW218542   0.555   5.874   9.846  0.1699 -0.3036 -0.2300
 5701SOL     OW18543   0.311   5.438  10.212  0.3350 -0.1521  0.4594
 5701SOL    HW118544   0.325   5.480  10.297 -1.0565 -1.6927  1.4993
 5701SOL    HW218545   0.259   5.360  10.231  0.7970 -1.0739 -1.7022
 5702SOL     OW18546   6.116   6.877   8.217 -0.5500 -0.2975 -1.0341
 5702SOL    HW118547   6.183   6.810   8.207 -0.1834 -0.1601  0.2939
 5702SOL    HW218548   6.040   6.831   8.250  0.0629  0.0578  1.0209
 5703SOL     OW18549   0.057   3.990  11.170  0.5149  0.1756 -0.0240
 5703SOL    HW118550  -0.034   3.999  11.195  0.4564 -1.3358  0.4139
 5703SOL    HW218551   0.069   4.051  11.097 -0.3432  1.7285  1.0901
 5704SOL     OW18552   1.654   4.178   2.305 -0.8389  0.1163  0.2392
 5704SOL    HW118553   1.722   4.166   2.239 -0.4853  1.1205  0.3935
 5704SOL    HW218554   1.584   4.117   2.280  0.0078 -0.7384 -0.0636
 5705SOL     OW18555   6.906   1.247  11.886 -0.7381  0.1491  0.3179
 5705SOL    HW118556   6.929   1.314  11.950 -0.7987 -0.2116  0.7189
 5705SOL    HW218557   6.987   1.196  11.874 -1.4755 -1.6952  2.4126
 5706SOL     OW18558   6.527   6.546   2.069 -0.3939 -0.3048 -0.0625
 5706SOL    HW118559   6.583   6.469   2.076  0.2125 -0.0283 -1.4930
 5706SOL    HW218560   6.468   6.526   1.997 -2.2955 -0.6495  1.5028
 5707SOL     OW18561   1.720   2.977  11.111  0.3579  0.8037  0.1422
 5707SOL    HW118562   1.633   2.941  11.096  0.4298  0.6399  0.1154
 5707SOL    HW218563   1.709   3.035  11.187  0.1825  0.9469  0.0088
 5708SOL     OW18564   2.395   1.307   6.289 -0.2898  0.4330  0.2695
 5708SOL    HW118565   2.410   1.395   6.323 -1.6615  0.4156  0.9906
 5708SOL    HW218566   2.360   1.320   6.201  1.7667  0.5168 -0.5930
 5709SOL     OW18567   7.563   2.263   1.614  0.3993  0.1429  0.6346
 5709SOL    HW118568   7.634   2.322   1.587  1.9420 -0.7151  2.5392
 5709SOL    HW218569   7.561   2.271   1.709 -1.9167 -0.1042  0.6631
 5710SOL     OW18570   0.464   4.199   0.953 -0.1281 -0.7036  0.9735
 5710SOL    HW118571   0.445   4.255   1.029  1.0513  0.7238  0.2634
 5710SOL    HW218572   0.547   4.232   0.919  0.3534 -2.6012  0.2149
 5711SOL     OW18573   1.284   1.377  12.424 -0.2685 -0.3409  0.0966
 5711SOL    HW118574   1.307   1.414  12.339  1.5379 -0.5229  0.4710
 5711SOL    HW218575   1.324   1.435  12.488 -2.1058  0.1329  0.8894
 5712SOL     OW18576   0.391   1.360  10.944  0.3943 -0.0510 -0.1288
 5712SOL    HW118577   0.392   1.378  11.038 -0.3566 -0.4616 -0.0337
 5712SOL    HW218578   0.326   1.420  10.909  0.5365 -0.0318 -0.3584
 5713SOL     OW18579   4.826   7.885   8.857 -0.1724 -0.3548 -0.5503
 5713SOL    HW118580   4.800   7.921   8.772  0.5435  1.0083 -0.2135
 5713SOL    HW218581   4.896   7.943   8.888 -0.3775 -0.8589  0.9451
 5714SOL     OW18582   7.905   3.747   7.505 -0.8010 -0.1725 -0.0274
 5714SOL    HW118583   7.927   3.747   7.412  0.1393 -0.9434  0.1794
 5714SOL    HW218584   7.839   3.678   7.513  0.5456 -1.5012  0.1602
 5715SOL     OW18585   7.942   6.301   1.651  0.0515 -0.7128 -0.0394
 5715SOL    HW118586   7.913   6.377   1.700  2.0347  0.8729 -1.2041
 5715SOL    HW218587   8.023   6.273   1.694 -0.3620 -1.8630  0.0420
 5716SOL     OW18588   2.816   0.291   9.399 -0.2846  0.0857  0.4787
 5716SOL    HW118589   2.729   0.253   9.390 -0.5920  0.8837 -0.0010
 5716SOL    HW218590   2.824   0.350   9.324  0.7991 -0.2317  0.3321
 5717SOL     OW18591   2.039   2.231  11.248  0.0467  0.1041  0.0080
 5717SOL    HW118592   2.003   2.155  11.294 -1.0138 -0.6309 -1.9118
 5717SOL    HW218593   2.073   2.287  11.317  0.8948 -2.1006  1.5052
 5718SOL     OW18594   5.164   3.386   6.798 -0.9519  0.3256 -0.0942
 5718SOL    HW118595   5.115   3.350   6.873  0.5320  0.1525  0.8253
 5718SOL    HW218596   5.244   3.422   6.836  0.1634 -0.3724 -1.6608
 5719SOL     OW18597   4.366   3.508  12.177 -0.3191  0.2812  0.3134
 5719SOL    HW118598   4.424   3.453  12.124  1.2274  1.2774  0.8996
 5719SOL    HW218599   4.305   3.546  12.115 -0.4004 -0.8538 -0.3175
 5720SOL     OW18600   5.329   4.566   4.362  0.3172 -0.1976  0.1565
 5720SOL    HW118601   5.360   4.652   4.333  1.0141 -0.4262  0.1925
 5720SOL    HW218602   5.409   4.513   4.368 -0.2685 -1.3977 -1.6823
 5721SOL     OW18603   5.385   0.893   9.026  0.4601  0.1005 -0.3894
 5721SOL    HW118604   5.468   0.910   9.070  0.0179 -0.9889  0.9544
 5721SOL    HW218605   5.334   0.843   9.090 -1.0637  0.3581 -1.3439
 5722SOL     OW18606   0.245   4.273   8.269  0.5281  0.1315  0.4016
 5722SOL    HW118607   0.258   4.345   8.331  0.5570 -0.2926  0.8951
 5722SOL    HW218608   0.252   4.314   8.182 -2.0284  1.2180  0.6197
 5723SOL     OW18609   3.701   7.360   0.384 -0.4155 -0.0310 -0.1679
 5723SOL    HW118610   3.614   7.392   0.359 -0.4858  0.0227  0.1382
 5723SOL    HW218611   3.716   7.397   0.472  1.0838  2.3156 -1.3084
 5724SOL     OW18612   6.797   2.783   4.209  1.1635  0.4864  0.3907
 5724SOL    HW118613   6.725   2.758   4.267  0.9911 -2.2237 -0.8275
 5724SOL    HW218614   6.843   2.853   4.256 -1.7090  1.7456  1.5969
 5725SOL     OW18615   3.335   2.000  11.129 -0.4325 -0.0101  0.0363
 5725SOL    HW118616   3.429   2.004  11.114 -0.1470 -0.8729  1.3885
 5725SOL    HW218617   3.322   1.918  11.177 -1.8157  0.2925  0.2266
 5726SOL     OW18618   0.150   7.568  12.362 -0.4795  0.0898  0.4767
 5726SOL    HW118619   0.225   7.622  12.386 -0.4594 -0.2750  1.2533
 5726SOL    HW218620   0.075   7.629  12.364 -0.2312  0.4273 -0.1870
 5727SOL     OW18621   4.133   7.489  11.293 -0.4579 -0.5416  0.1554
 5727SOL    HW118622   4.143   7.541  11.213  0.1041 -0.9291 -0.0355
 5727SOL    HW218623   4.218   7.494  11.336  0.2658 -2.8234 -0.8284
 5728SOL     OW18624   4.834   7.204   3.495  0.0755 -0.5390 -0.0211
 5728SOL    HW118625   4.841   7.243   3.582  0.2474 -0.1387 -0.2101
 5728SOL    HW218626   4.741   7.211   3.474  0.0730 -0.4024  0.0281
 5729SOL     OW18627   0.382   6.756   5.487  0.0266  0.0172 -0.0292
 5729SOL    HW118628   0.308   6.726   5.539 -0.2559  1.5936  0.5120
 5729SOL    HW218629   0.459   6.732   5.538 -0.1254 -0.8750 -0.2000
 5730SOL     OW18630   5.583   1.293   3.704  0.3796 -0.7047  0.2288
 5730SOL    HW118631   5.603   1.240   3.781  2.7111 -0.6722 -0.2945
 5730SOL    HW218632   5.523   1.360   3.736  0.6491 -1.1887  1.8127
 5731SOL     OW18633   3.205   5.600   0.020 -0.1848  0.2535 -0.3231
 5731SOL    HW118634   3.253   5.521  -0.004  0.8538  0.6666  0.3097
 5731SOL    HW218635   3.145   5.572   0.089  0.1359 -0.0031 -0.1469
 5732SOL     OW18636   1.290   6.756   1.667  0.0274  0.0430  0.1395
 5732SOL    HW118637   1.352   6.825   1.642 -1.1303  0.9821 -0.2342
 5732SOL    HW218638   1.248   6.731   1.584 -1.1369  0.4751  0.5786
 5733SOL     OW18639   3.611   3.532   7.632 -0.0185 -0.3341 -0.4001
 5733SOL    HW118640   3.658   3.612   7.656  0.1888 -0.7156  0.5134
 5733SOL    HW218641   3.574   3.501   7.715  0.7483 -1.7340 -0.5661
 5734SOL     OW18642   5.353   7.830   5.968 -0.3315  0.0730 -0.1079
 5734SOL    HW118643   5.372   7.792   6.054  3.8368  0.1306 -0.7736
 5734SOL    HW218644   5.366   7.924   5.982  0.3932  0.0764 -0.7690
 5735SOL     OW18645   2.840   4.605   0.278 -0.2548 -0.1177 -0.1286
 5735SOL    HW118646   2.897   4.529   0.268 -1.0321 -0.6883 -0.3011
 5735SOL    HW218647   2.758   4.569   0.312 -0.2528  0.7882  0.8986
 5736SOL     OW18648   7.905   4.427   2.174  0.0099  0.1517 -0.0389
 5736SOL    HW118649   7.998   4.424   2.196 -0.4364 -0.6850  1.9275
 5736SOL    HW218650   7.866   4.483   2.240 -0.9079  0.4886 -0.8413
 5737SOL     OW18651   6.355   4.918  12.062 -0.3078  0.1752 -0.4124
 5737SOL    HW118652   6.422   4.890  12.000 -0.2640 -0.2110 -0.1934
 5737SOL    HW218653   6.282   4.858  12.048 -0.1364 -0.1838  0.1955
 5738SOL     OW18654   0.181   7.861  11.604  0.1358 -0.0402  0.0757
 5738SOL    HW118655   0.144   7.777  11.632  0.5182 -0.3558 -0.3340
 5738SOL    HW218656   0.192   7.851  11.509 -0.5065  0.7499 -0.0859
 5739SOL     OW18657   3.005   5.435  12.137  0.2162 -0.4679 -0.4206
 5739SOL    HW118658   3.082   5.410  12.187  0.1586 -1.0245 -0.6094
 5739SOL    HW218659   2.931   5.407  12.191  0.1492 -0.5624 -0.5615
 5740SOL     OW18660   0.386   1.333   6.692  0.3990 -0.1002  0.3983
 5740SOL    HW118661   0.343   1.331   6.778  1.9295  0.2921  1.2251
 5740SOL    HW218662   0.388   1.426   6.669  0.7928 -0.1122  0.3767
 5741SOL     OW18663   3.389   2.419   0.081 -0.2196 -0.3914  0.2736
 5741SOL    HW118664   3.297   2.444   0.086 -0.1168  0.2378 -0.6790
 5741SOL    HW218665   3.394   2.359   0.007  0.0781 -0.7214  0.5580
 5742SOL     OW18666   1.919   0.700   6.179 -0.1818 -0.0110  0.0375
 5742SOL    HW118667   1.855   0.771   6.186 -1.3092 -1.0010  0.1416
 5742SOL    HW218668   1.931   0.688   6.085  1.6393  1.6867 -0.0071
 5743SOL     OW18669   2.150   2.438   7.655  0.1212  0.1197  0.2794
 5743SOL    HW118670   2.157   2.353   7.699  1.2432 -0.8175 -1.5915
 5743SOL    HW218671   2.203   2.497   7.709 -0.0213 -0.5503  1.1723
 5744SOL     OW18672   6.189   4.009   2.118 -0.3434 -0.2129 -0.3560
 5744SOL    HW118673   6.274   3.973   2.094  0.3716  1.3551 -0.3441
 5744SOL    HW218674   6.155   4.048   2.038 -0.6822 -0.1351 -0.1775
 5745SOL     OW18675   5.914   5.236  10.706  0.2088 -0.3479 -0.2944
 5745SOL    HW118676   5.892   5.152  10.665 -3.0079 -0.3473  1.1702
 5745SOL    HW218677   6.010   5.241  10.699  0.3383 -3.1404 -2.2537
 5746SOL     OW18678   6.421   1.427  10.481  0.6285 -0.0953 -0.2246
 5746SOL    HW118679   6.454   1.498  10.427 -0.0215 -0.8361 -1.6539
 5746SOL    HW218680   6.473   1.351  10.457  1.2947 -0.1543  1.2636
 5747SOL     OW18681   7.249   1.869  10.387 -0.1249  0.0484 -0.0172
 5747SOL    HW118682   7.298   1.887  10.307  0.3663  0.7628  0.4380
 5747SOL    HW218683   7.172   1.821  10.357 -1.1259  2.2883 -1.2019
 5748SOL     OW18684   1.678   5.884   0.362 -0.1084  0.4912 -0.2785
 5748SOL    HW118685   1.719   5.932   0.435  0.5194  1.3761 -1.1921
 5748SOL    HW218686   1.697   5.792   0.381  1.3979  0.8104 -0.1068
 5749SOL     OW18687   6.412   5.142   4.547  0.0992  0.0141 -0.1622
 5749SOL    HW118688   6.505   5.124   4.562  0.0199 -0.3211 -0.0797
 5749SOL    HW218689   6.366   5.077   4.599 -0.2028  1.5772  1.6493
 5750SOL     OW18690   1.292   1.328   2.759  0.4963  0.4328 -0.0885
 5750SOL    HW118691   1.352   1.284   2.700  1.2218  2.1471 -0.6713
 5750SOL    HW218692   1.296   1.420   2.734 -0.7336  0.8996  1.2911
 5751SOL     OW18693   6.190   6.166   2.253 -0.5635 -0.2554  0.0039
 5751SOL    HW118694   6.236   6.247   2.273 -1.5563  0.6572 -1.2469
 5751SOL    HW218695   6.147   6.182   2.169 -0.8114 -2.0748 -0.2761
 5752SOL     OW18696   3.181   5.312   4.693 -0.2783 -0.0032  0.5079
 5752SOL    HW118697   3.146   5.357   4.617 -2.1885 -0.9991  0.7374
 5752SOL    HW218698   3.227   5.236   4.657 -0.5286 -0.0583  0.3010
 5753SOL     OW18699   6.356   4.649   4.205 -0.1800 -0.0507  0.1762
 5753SOL    HW118700   6.298   4.719   4.174  1.7714  1.6906  0.2444
 5753SOL    HW218701   6.361   4.662   4.299  0.1932 -0.2989  0.1903
 5754SOL     OW18702   1.142   1.412   1.802  0.0507  0.0047 -0.0971
 5754SOL    HW118703   1.233   1.420   1.830 -0.1495 -2.5492  1.6658
 5754SOL    HW218704   1.095   1.388   1.882 -1.9938  0.2130 -1.1794
 5755SOL     OW18705   3.207   0.941  12.189  0.2065 -0.4976 -0.5567
 5755SOL    HW118706   3.219   0.953  12.095  1.6141 -1.1519 -0.4910
 5755SOL    HW218707   3.190   0.847  12.199 -1.4757 -0.1851 -0.2782
 5756SOL     OW18708   6.478   1.689   2.760  0.1243 -0.2699 -0.0665
 5756SOL    HW118709   6.526   1.692   2.843  1.0361 -2.1965 -0.4708
 5756SOL    HW218710   6.496   1.602   2.725 -1.3297  0.0211 -1.6646
 5757SOL     OW18711   1.479   6.344   6.714  0.4341 -0.0724  0.0850
 5757SOL    HW118712   1.451   6.433   6.692 -0.8718 -0.5156 -0.1390
 5757SOL    HW218713   1.566   6.355   6.751  0.7629  1.1899 -0.9625
 5758SOL     OW18714   3.622   2.947   0.316  0.1659  0.1324  0.2016
 5758SOL    HW118715   3.699   3.004   0.308 -1.4383  2.2419 -1.5507
 5758SOL    HW218716   3.549   3.008   0.325 -1.5074 -1.7134 -0.3646
 5759SOL     OW18717   2.428   7.175   7.704 -0.5020 -0.0873  0.2690
 5759SOL    HW118718   2.405   7.241   7.769  2.0642  1.1620  0.0433
 5759SOL    HW218719   2.485   7.114   7.750  0.4201  0.1748 -0.4898
 5760SOL     OW18720   6.815   1.900   8.960 -0.2157 -0.2772  0.2928
 5760SOL    HW118721   6.732   1.868   8.924 -2.7180  2.4909  3.0305
 5760SOL    HW218722   6.811   1.878   9.053  0.8483  2.1192  0.9955
 5761SOL     OW18723   0.555   6.668   3.547 -0.2428 -0.3570  0.0235
 5761SOL    HW118724   0.484   6.660   3.483  0.4906 -0.1488 -0.8399
 5761SOL    HW218725   0.624   6.715   3.500  0.3853 -0.3644  0.9175
 5762SOL     OW18726   2.142   7.883  10.785  0.1087  0.1396 -0.2095
 5762SOL    HW118727   2.089   7.816  10.741  1.6321 -1.4731  0.2714
 5762SOL    HW218728   2.183   7.932  10.714  1.3970 -1.4960 -0.6622
 5763SOL     OW18729   7.930   7.006   7.736 -1.0528  0.0120  0.8277
 5763SOL    HW118730   7.971   6.932   7.691 -0.4148 -0.1094  1.5653
 5763SOL    HW218731   7.996   7.034   7.800 -1.6806  0.5735  1.2487
 5764SOL     OW18732   1.487   5.034   3.463 -0.2277  0.7437 -0.2532
 5764SOL    HW118733   1.554   5.045   3.530  0.7096 -2.2497 -0.5601
 5764SOL    HW218734   1.441   5.118   3.461  2.4543  2.3722  1.0871
 5765SOL     OW18735   1.934   0.817   0.962 -0.0159 -0.5628 -0.1559
 5765SOL    HW118736   1.842   0.824   0.937 -0.0372 -0.3221 -0.0198
 5765SOL    HW218737   1.969   0.747   0.908 -0.7202 -1.9324  1.1115
 5766SOL     OW18738   7.907   5.518   9.677 -0.1483  0.2266  0.0318
 5766SOL    HW118739   7.951   5.524   9.592 -1.3159 -1.2881 -0.7380
 5766SOL    HW218740   7.943   5.439   9.717 -0.7600  0.0421  0.2299
 5767SOL     OW18741   7.893   2.621  10.997 -0.0119  0.3263 -0.2348
 5767SOL    HW118742   7.986   2.642  10.988  0.4657 -1.1629  0.8841
 5767SOL    HW218743   7.880   2.611  11.091 -1.2377  0.1666 -0.4053
 5768SOL     OW18744   4.789   6.284   9.951 -0.2166 -0.2393 -0.5512
 5768SOL    HW118745   4.743   6.350   9.899  1.0923  1.6043  0.5464
 5768SOL    HW218746   4.761   6.299  10.041 -0.8102 -2.0040 -0.3877
 5769SOL     OW18747   4.416   2.792  10.602  0.4730  0.0287  0.4514
 5769SOL    HW118748   4.390   2.792  10.694 -2.1112  1.4356 -0.1576
 5769SOL    HW218749   4.422   2.885  10.579 -0.1587 -0.2844 -1.0822
 5770SOL     OW18750   0.624   2.554  11.762  0.2695  0.2230  0.1351
 5770SOL    HW118751   0.675   2.607  11.823 -0.7812  1.0692  0.3115
 5770SOL    HW218752   0.641   2.594  11.676  0.1198  0.3308  0.1557
 5771SOL     OW18753   1.969   1.811   7.263  0.3443  0.2207 -0.2837
 5771SOL    HW118754   1.928   1.819   7.350 -2.6776 -0.8018 -1.4884
 5771SOL    HW218755   1.943   1.725   7.232  1.3308  0.5840 -2.2583
 5772SOL     OW18756   5.514   2.754   8.848  0.0554  0.3296 -0.3004
 5772SOL    HW118757   5.470   2.717   8.925  0.8596 -0.8607 -0.3938
 5772SOL    HW218758   5.607   2.743   8.866  0.2769  1.0373 -0.9760
 5773SOL     OW18759   6.664   3.085   1.539 -0.1696 -0.9530  0.0264
 5773SOL    HW118760   6.595   3.076   1.474  0.5808 -1.7093 -0.7024
 5773SOL    HW218761   6.669   2.999   1.581  0.1334 -0.8207  0.2679
 5774SOL     OW18762   4.418   5.502   6.385 -0.3571 -0.7519 -0.1816
 5774SOL    HW118763   4.410   5.524   6.478  2.9274  1.2949 -0.2379
 5774SOL    HW218764   4.386   5.580   6.339 -0.4019 -1.1052 -0.7669
 5775SOL     OW18765   2.751   2.096   6.138 -0.2385  0.8374 -0.1488
 5775SOL    HW118766   2.835   2.135   6.163 -0.2453 -1.6687  5.2753
 5775SOL    HW218767   2.774   2.007   6.110 -0.9296  1.5777 -3.5278
 5776SOL     OW18768   0.771   5.449   7.535 -0.5754 -0.4936 -0.0970
 5776SOL    HW118769   0.718   5.521   7.570 -0.1297 -0.1398 -0.1433
 5776SOL    HW218770   0.760   5.454   7.440  0.3545  0.2277 -0.1784
 5777SOL     OW18771   3.022   4.262  11.510 -0.6279 -0.2706  0.0280
 5777SOL    HW118772   3.093   4.251  11.574  0.2024  0.4202 -0.7391
 5777SOL    HW218773   3.046   4.341  11.462 -0.3930 -1.5840 -2.1655
 5778SOL     OW18774   6.061   0.641   1.733  0.5971  0.4628  1.3264
 5778SOL    HW118775   6.070   0.734   1.752  1.0479  0.7139 -0.0749
 5778SOL    HW218776   5.974   0.619   1.766 -1.0407  2.2187 -1.4278
 5779SOL     OW18777   4.790   3.566   9.586 -0.0260  0.1531 -0.0816
 5779SOL    HW118778   4.830   3.498   9.640  1.1735  0.9324  0.0449
 5779SOL    HW218779   4.864   3.618   9.555 -0.8647  0.9357 -0.8164
 5780SOL     OW18780   7.126   3.601   9.285  0.1290  0.1133 -0.5056
 5780SOL    HW118781   7.084   3.555   9.358 -0.8383  1.1869 -0.3515
 5780SOL    HW218782   7.146   3.533   9.221  0.3284 -0.7426  0.4518
 5781SOL     OW18783   0.144   6.631  11.266 -0.3852 -0.0590  0.3001
 5781SOL    HW118784   0.239   6.621  11.263 -0.4980 -1.4260  0.3687
 5781SOL    HW218785   0.127   6.680  11.347  0.4489  3.8786 -1.6779
 5782SOL     OW18786   0.222   6.357   2.387 -0.0193  0.1832  0.0625
 5782SOL    HW118787   0.212   6.410   2.307 -0.9217 -0.6027 -0.3672
 5782SOL    HW218788   0.248   6.271   2.355 -0.2240 -0.0957  0.6341
 5783SOL     OW18789   6.800   7.453   0.447 -0.3661 -0.3441 -0.5976
 5783SOL    HW118790   6.801   7.370   0.494  0.1786 -0.6641 -1.1611
 5783SOL    HW218791   6.891   7.482   0.447 -0.6426  0.5310  0.0746
 5784SOL     OW18792   5.992   5.283   5.542  0.1807 -0.3650 -0.3310
 5784SOL    HW118793   5.916   5.242   5.501 -0.7034  1.5203 -0.6518
 5784SOL    HW218794   6.034   5.211   5.590 -1.2654 -1.6515 -0.8991
 5785SOL     OW18795   7.095   3.131   2.747 -0.0942 -0.4392  0.0685
 5785SOL    HW118796   7.107   3.088   2.663  0.0859 -1.9323  0.8241
 5785SOL    HW218797   7.183   3.141   2.783 -0.2211 -0.5898  0.4359
 5786SOL     OW18798   6.001   3.346   0.253 -0.3643 -0.3771  0.0688
 5786SOL    HW118799   5.999   3.251   0.249  1.3016 -0.4136 -0.8242
 5786SOL    HW218800   6.054   3.366   0.330  2.6360 -0.2931 -1.8786
 5787SOL     OW18801   5.586   4.957   0.971 -0.2812 -0.9141  0.2171
 5787SOL    HW118802   5.660   5.003   1.010 -0.4987 -1.5746  1.4457
 5787SOL    HW218803   5.515   4.967   1.034 -0.3884 -2.7457  0.4253
 5788SOL     OW18804   5.423   7.961   0.978 -0.0107  0.2223  0.6333
 5788SOL    HW118805   5.371   7.883   0.960  1.4024 -0.1994 -2.2384
 5788SOL    HW218806   5.476   7.937   1.055  0.5741 -1.8044 -0.3221
 5789SOL     OW18807   0.386   1.818   1.039  0.1470  0.2239 -0.4062
 5789SOL    HW118808   0.350   1.742   0.994 -1.6427  1.0614 -0.4797
 5789SOL    HW218809   0.316   1.845   1.099  0.8427  1.6454 -0.1978
 5790SOL     OW18810   1.111   5.075   4.098 -0.0518 -0.0243  0.6325
 5790SOL    HW118811   1.198   5.101   4.128 -0.3635  1.3498  0.4067
 5790SOL    HW218812   1.127   5.025   4.018  0.4753  1.8736 -0.5218
 5791SOL     OW18813   5.268   3.789  11.244 -0.0924 -0.3143  0.2304
 5791SOL    HW118814   5.185   3.811  11.287 -0.2132  0.4287 -0.3749
 5791SOL    HW218815   5.307   3.722  11.301 -1.5843 -1.4625 -0.0223
 5792SOL     OW18816   1.553   0.835   0.193 -0.1797  0.3471  0.0323
 5792SOL    HW118817   1.592   0.872   0.114  0.2824  2.2592  1.0973
 5792SOL    HW218818   1.593   0.884   0.265 -1.0364 -0.9165  1.4362
 5793SOL     OW18819   0.164   7.530   9.598  0.3563 -0.2499  0.0176
 5793SOL    HW118820   0.086   7.533   9.543  0.3917  0.6911  0.0066
 5793SOL    HW218821   0.216   7.606   9.572  1.0971 -0.6457  0.2944
 5794SOL     OW18822   4.372   5.494   1.407 -0.0500 -0.4141 -0.1641
 5794SOL    HW118823   4.324   5.555   1.350 -0.4674  0.1438  0.7469
 5794SOL    HW218824   4.463   5.503   1.381 -0.0639  0.8336  0.1335
 5795SOL     OW18825   4.325   7.720   5.267 -0.3305  0.0969  0.1141
 5795SOL    HW118826   4.396   7.675   5.222 -1.5022 -0.2442 -1.5021
 5795SOL    HW218827   4.338   7.813   5.246  0.8733  0.3302  1.6934
 5796SOL     OW18828   7.537   2.914   3.729 -0.1864 -0.4323  0.2265
 5796SOL    HW118829   7.490   2.972   3.669  0.2283  0.6811  0.9426
 5796SOL    HW218830   7.504   2.826   3.709 -1.1338  0.0960 -0.6012
 5797SOL     OW18831   4.526   1.518   1.559 -0.1670 -0.1762  0.1779
 5797SOL    HW118832   4.506   1.610   1.573 -1.7805 -0.3098 -0.8927
 5797SOL    HW218833   4.480   1.472   1.629 -2.4186 -0.3594 -1.3043
 5798SOL     OW18834   2.731   7.736   3.848 -0.1873 -0.0800  0.3472
 5798SOL    HW118835   2.731   7.832   3.852 -0.0572 -0.1119  1.5590
 5798SOL    HW218836   2.714   7.716   3.756 -0.5391  1.0995  0.1352
 5799SOL     OW18837   5.275   5.218   6.792  0.5681  0.0647 -0.1317
 5799SOL    HW118838   5.370   5.207   6.792  0.5638  0.0159  0.2017
 5799SOL    HW218839   5.262   5.312   6.800  0.5892 -0.0527  1.7680
 5800SOL     OW18840   3.479   6.934   6.793 -0.0324  0.0180 -0.4000
 5800SOL    HW118841   3.522   6.928   6.878 -1.1204  1.4917  0.3073
 5800SOL    HW218842   3.535   6.991   6.741 -0.2648  0.5610 -0.0586
 5801SOL     OW18843   4.272   6.544   0.294 -0.8181 -0.5465  0.0456
 5801SOL    HW118844   4.237   6.616   0.346  1.6683  0.7858  0.0483
 5801SOL    HW218845   4.346   6.512   0.345 -0.7303 -1.8626 -0.8573
 5802SOL     OW18846   1.189   7.935   9.854 -0.2638 -0.3591  0.6632
 5802SOL    HW118847   1.207   8.024   9.824  1.1021  0.1280  2.7381
 5802SOL    HW218848   1.140   7.895   9.782 -1.0417  2.0867 -0.2557
 5803SOL     OW18849   1.479   5.793   6.685 -0.2223  0.0567  0.0760
 5803SOL    HW118850   1.394   5.776   6.726 -0.5666  0.1689 -0.5813
 5803SOL    HW218851   1.476   5.885   6.661 -0.6139 -0.3431 -1.5242
 5804SOL     OW18852   2.200   0.163   5.598  0.1595 -0.4305 -0.3868
 5804SOL    HW118853   2.209   0.219   5.521  1.0732 -0.7952 -0.5574
 5804SOL    HW218854   2.256   0.204   5.664 -0.9758  0.1349  0.2401
 5805SOL     OW18855   4.525   7.136   0.046 -0.3746  0.0655  0.0438
 5805SOL    HW118856   4.465   7.211   0.044 -1.9328 -1.0350  1.7823
 5805SOL    HW218857   4.519   7.098  -0.042  0.0525  1.6552 -0.7051
 5806SOL     OW18858   2.787   5.059   3.412  0.2495 -0.3271 -0.2814
 5806SOL    HW118859   2.846   4.991   3.444  0.4216 -0.5847 -1.1425
 5806SOL    HW218860   2.710   5.012   3.380 -0.6631  0.0287  1.2509
 5807SOL     OW18861   5.170   5.059   6.236 -0.5284  0.1111 -0.3103
 5807SOL    HW118862   5.139   5.021   6.318 -2.1965  0.1199 -0.8937
 5807SOL    HW218863   5.163   5.154   6.249  0.5913  0.1559  0.0302
 5808SOL     OW18864   6.045   5.977   3.998 -0.2018 -0.4614 -0.8511
 5808SOL    HW118865   6.130   5.976   3.954  0.8156  2.2543  0.7605
 5808SOL    HW218866   6.057   5.922   4.075  0.4852  0.6649 -0.1158
 5809SOL     OW18867   7.955   6.706   0.278 -0.5735 -0.0296  0.2616
 5809SOL    HW118868   8.050   6.700   0.268 -0.4959  0.3081  0.7365
 5809SOL    HW218869   7.919   6.659   0.203 -0.0369  1.7700 -1.2040
 5810SOL     OW18870   1.321   0.817   5.164 -0.0214 -0.4164 -0.0608
 5810SOL    HW118871   1.309   0.837   5.256  1.6193 -0.5337  0.2028
 5810SOL    HW218872   1.296   0.725   5.156 -1.1945 -0.1321  0.0191
 5811SOL     OW18873   4.577   0.526   8.582  0.3037 -0.1731 -0.1203
 5811SOL    HW118874   4.667   0.494   8.585  0.5747  0.5371 -0.4023
 5811SOL    HW218875   4.566   0.574   8.664 -0.3106 -1.4898  0.6040
 5812SOL     OW18876   0.507   3.395   5.052  0.0296  0.2830 -0.1632
 5812SOL    HW118877   0.452   3.319   5.033  0.4118 -0.2584  0.8124
 5812SOL    HW218878   0.496   3.452   4.976  0.0462 -0.9164 -1.0971
 5813SOL     OW18879   5.674   4.734   8.529 -0.6011 -0.0994 -0.5087
 5813SOL    HW118880   5.586   4.697   8.538  0.2063 -1.9825  0.0736
 5813SOL    HW218881   5.710   4.732   8.618 -0.5878  2.4205 -0.3787
 5814SOL     OW18882   2.674   3.475   6.214  0.4192 -0.0017  0.1505
 5814SOL    HW118883   2.744   3.506   6.272 -0.2828 -1.9687  2.2413
 5814SOL    HW218884   2.656   3.386   6.246 -0.7131 -0.8171 -2.5454
 5815SOL     OW18885   2.786   0.857   1.444  0.3375  0.0192 -0.1297
 5815SOL    HW118886   2.692   0.862   1.459  0.3307 -2.5448  1.2173
 5815SOL    HW218887   2.822   0.932   1.492 -1.0601  2.0636 -2.1002
 5816SOL     OW18888   2.610   1.735   0.118  0.4503  0.2668  0.3334
 5816SOL    HW118889   2.575   1.657   0.162  0.3358  0.2829  0.2707
 5816SOL    HW218890   2.534   1.775   0.076  0.7821 -0.5786 -1.1606
 5817SOL     OW18891   4.845   4.046   4.055 -0.4295  0.2553  0.0252
 5817SOL    HW118892   4.847   4.134   4.094  1.0914 -0.5979  1.9708
 5817SOL    HW218893   4.872   3.987   4.125 -0.2865 -1.6729 -1.5690
 5818SOL     OW18894   0.295   4.368  11.255  0.8286 -0.5272  0.0579
 5818SOL    HW118895   0.313   4.445  11.309 -0.2071 -1.3272  1.6272
 5818SOL    HW218896   0.276   4.403  11.169 -0.3959  1.0535  0.9236
 5819SOL     OW18897   4.414   7.810   7.444 -0.1259 -0.5496  0.2237
 5819SOL    HW118898   4.373   7.881   7.493  1.3442 -0.1960  0.9878
 5819SOL    HW218899   4.495   7.790   7.492  0.7398 -1.0390 -1.3617
 5820SOL     OW18900   1.486   5.379   5.555  0.1909 -0.3123  0.2125
 5820SOL    HW118901   1.561   5.348   5.505 -1.1265 -0.1651 -1.9638
 5820SOL    HW218902   1.446   5.300   5.591 -0.4814 -0.7576 -1.4217
 5821SOL     OW18903   1.072   2.663   5.355 -0.4267 -0.7376 -0.2155
 5821SOL    HW118904   1.118   2.737   5.313  1.5475 -1.2132  0.9543
 5821SOL    HW218905   1.037   2.700   5.436 -3.3021 -0.0859 -1.6227
 5822SOL     OW18906   2.845   5.401   2.638 -0.7772  0.1456 -0.3545
 5822SOL    HW118907   2.852   5.441   2.725  1.0332  0.8375 -0.7809
 5822SOL    HW218908   2.771   5.341   2.646 -1.8634  1.5690  1.1036
 5823SOL     OW18909   4.116   2.626   6.519  0.2673 -0.0201 -0.0492
 5823SOL    HW118910   4.039   2.682   6.518 -0.0503 -0.4584 -0.6566
 5823SOL    HW218911   4.095   2.555   6.458  0.9523 -0.4078  0.1545
 5824SOL     OW18912   2.976   6.515   0.469 -0.0348 -0.0040 -0.6025
 5824SOL    HW118913   3.037   6.557   0.530 -0.4395  1.3574 -1.1029
 5824SOL    HW218914   2.934   6.446   0.521 -1.7519  2.3122  1.2935
 5825SOL     OW18915   0.043   2.745  11.483 -0.1014 -0.9391  0.0819
 5825SOL    HW118916   0.129   2.723  11.519  0.6284  0.6731 -0.6008
 5825SOL    HW218917   0.002   2.798  11.552  0.7530  0.9805 -0.8099
 5826SOL     OW18918   0.995   5.522   1.137 -0.4457  0.1780 -0.1401
 5826SOL    HW118919   1.032   5.597   1.184 -0.4647  1.0904 -1.5289
 5826SOL    HW218920   1.050   5.513   1.060 -0.6583 -1.0469 -0.1614
 5827SOL     OW18921   4.409   0.392  12.080  0.3298  0.1259  0.0230
 5827SOL    HW118922   4.448   0.312  12.044 -0.0372  0.5173 -1.3141
 5827SOL    HW218923   4.473   0.461  12.061 -0.3241  0.5161 -0.8380
 5828SOL     OW18924   1.803   3.303   2.220  0.2144 -0.2511  0.3091
 5828SOL    HW118925   1.772   3.262   2.140 -0.5639 -0.9017  0.9193
 5828SOL    HW218926   1.735   3.284   2.285  1.5090 -1.0224  1.5059
 5829SOL     OW18927   3.911   4.769   4.438 -0.3285 -0.5086 -0.9512
 5829SOL    HW118928   3.985   4.826   4.459  0.3150 -1.2957 -1.0377
 5829SOL    HW218929   3.834   4.818   4.469  0.2241  0.2835 -0.7824
 5830SOL     OW18930   5.738   5.256   4.183 -0.5781  0.6051 -0.2258
 5830SOL    HW118931   5.713   5.182   4.238  0.0304  0.2590 -0.4127
 5830SOL    HW218932   5.707   5.333   4.231  0.7643  0.3705  1.0635
 5831SOL     OW18933   1.172   2.218  11.398 -0.1042  0.1714 -0.4264
 5831SOL    HW118934   1.234   2.155  11.435 -2.1107 -0.6363  1.8070
 5831SOL    HW218935   1.187   2.298  11.448  2.0092  1.4578 -2.8421
 5832SOL     OW18936   4.208   1.997   0.849  0.0372  0.0819  0.3618
 5832SOL    HW118937   4.240   1.967   0.763 -2.0974 -0.9679 -0.1390
 5832SOL    HW218938   4.123   2.036   0.830 -1.3489 -1.8662  2.1894
 5833SOL     OW18939   2.269   2.084   3.783  0.5180 -0.2948  0.4638
 5833SOL    HW118940   2.304   2.018   3.842  0.0020  0.0497  1.1746
 5833SOL    HW218941   2.293   2.167   3.824 -3.2047  0.0383  2.3896
 5834SOL     OW18942   1.881   4.347  10.468  0.5655  0.6303 -0.7418
 5834SOL    HW118943   1.872   4.432  10.511 -0.2946 -0.4669  1.3903
 5834SOL    HW218944   1.946   4.301  10.520 -0.9913 -0.9806 -0.1237
 5835SOL     OW18945   3.918   0.301   2.995  0.2339  0.2431  0.0179
 5835SOL    HW118946   3.996   0.337   3.038  0.6992  1.1868 -1.4990
 5835SOL    HW218947   3.845   0.336   3.045  0.6439 -3.0569  3.3714
 5836SOL     OW18948   7.376   6.388   2.027  0.4181 -0.5037 -0.2438
 5836SOL    HW118949   7.333   6.446   2.089  1.0744 -1.2508  0.9567
 5836SOL    HW218950   7.454   6.437   1.998  1.0196 -0.7932  0.8336
 5837SOL     OW18951   6.182   4.511   7.429 -0.2792  0.0911  0.1614
 5837SOL    HW118952   6.201   4.430   7.476 -1.1921  0.1647  0.6706
 5837SOL    HW218953   6.098   4.495   7.386  0.0636  0.3848 -0.6456
 5838SOL     OW18954   5.085   6.899   7.780 -0.9160 -0.5690 -0.5381
 5838SOL    HW118955   5.037   6.831   7.827  1.0066 -0.8826  1.0723
 5838SOL    HW218956   5.159   6.854   7.740 -0.2905  0.3759 -0.4711
 5839SOL     OW18957   7.542   0.853   2.810 -0.3378  0.0841  0.2618
 5839SOL    HW118958   7.604   0.925   2.823 -1.3773  1.3206 -1.2817
 5839SOL    HW218959   7.570   0.812   2.727 -1.3044  0.3849 -0.2244
 5840SOL     OW18960   2.529   5.047   9.878  0.1401 -0.1468 -0.2639
 5840SOL    HW118961   2.552   5.108   9.948  2.0055 -0.5001 -0.5065
 5840SOL    HW218962   2.589   5.070   9.807 -1.6207  0.1225 -1.7211
 5841SOL     OW18963   6.194   3.350   9.743  0.2895  0.2221 -0.5779
 5841SOL    HW118964   6.163   3.263   9.770  0.8933  0.5573  1.3756
 5841SOL    HW218965   6.124   3.410   9.771  1.3034  0.6693  1.1739
 5842SOL     OW18966   7.239   2.509   0.540  0.1382  0.2274 -0.6882
 5842SOL    HW118967   7.187   2.538   0.465  0.1071 -0.4586 -0.9368
 5842SOL    HW218968   7.242   2.414   0.532 -0.3287  0.0979  0.4813
 5843SOL     OW18969   4.725   5.825   2.303  0.1450  0.1384  0.4654
 5843SOL    HW118970   4.769   5.741   2.314  0.3758 -0.1006 -1.9465
 5843SOL    HW218971   4.794   5.886   2.279 -0.5092  0.1848 -1.4145
 5844SOL     OW18972   3.938   2.901  10.811  0.2242  0.2830 -0.1247
 5844SOL    HW118973   4.022   2.945  10.798  0.1584  0.3459 -0.3275
 5844SOL    HW218974   3.874   2.972  10.812  0.1336  0.2041 -0.3177
 5845SOL     OW18975   6.364   3.164   2.479 -0.5225  0.6700  0.4647
 5845SOL    HW118976   6.381   3.072   2.497  0.9371  1.4070  3.4470
 5845SOL    HW218977   6.441   3.194   2.431 -0.8449  0.4427 -0.2088
 5846SOL     OW18978   6.120   4.999   5.972  1.0245  0.0816  0.1449
 5846SOL    HW118979   6.211   5.005   6.003  2.1094 -1.1078 -2.4952
 5846SOL    HW218980   6.116   4.916   5.926 -1.4729  0.0885  0.2259
 5847SOL     OW18981   5.868   2.271   8.876  0.6006  0.2831 -0.3034
 5847SOL    HW118982   5.857   2.210   8.949  0.6047  0.5245 -0.0989
 5847SOL    HW218983   5.779   2.304   8.859  0.2691 -1.2202 -1.6842
 5848SOL     OW18984   5.035   5.672   3.271  0.5379  0.4844  0.1231
 5848SOL    HW118985   5.110   5.706   3.221  0.1745 -0.0242 -0.8003
 5848SOL    HW218986   4.982   5.627   3.205  0.4020 -0.8224  1.1058
 5849SOL     OW18987   3.070   5.219   1.571  0.1889  0.2606 -0.0249
 5849SOL    HW118988   3.160   5.194   1.593  1.0680  0.2025 -3.2087
 5849SOL    HW218989   3.033   5.141   1.530 -1.1315  0.5046  0.6424
 5850SOL     OW18990   1.735   0.302  10.024  0.0387 -0.8125 -0.1846
 5850SOL    HW118991   1.798   0.239   9.988  0.9696 -0.2049  0.3558
 5850SOL    HW218992   1.691   0.255  10.094  0.0456 -1.1661 -0.4146
 5851SOL     OW18993   2.469   4.257   7.175  0.7556 -0.4586 -0.2638
 5851SOL    HW118994   2.490   4.265   7.268 -2.9977 -1.5637  0.8608
 5851SOL    HW218995   2.483   4.165   7.154 -2.8140 -1.3518  0.6624
 5852SOL     OW18996   4.267   5.729   4.633 -0.4620 -0.6974  0.3006
 5852SOL    HW118997   4.341   5.784   4.659 -0.8739  0.2074 -0.3666
 5852SOL    HW218998   4.269   5.655   4.694  1.0127 -0.7167  0.2698
 5853SOL     OW18999   2.223   7.941   3.143  0.1917  0.6197 -0.1227
 5853SOL    HW119000   2.145   7.997   3.149 -0.4258  0.0623 -2.2077
 5853SOL    HW219001   2.278   7.984   3.078  0.4275 -0.3574 -0.5890
 5854SOL     OW19002   5.485   1.452   8.162 -0.0107 -0.1690 -0.3279
 5854SOL    HW119003   5.448   1.540   8.157 -2.6751 -1.2057 -0.5507
 5854SOL    HW219004   5.470   1.425   8.253  1.7868 -0.0377  0.0370
 5855SOL     OW19005   4.158   5.453  11.491  0.1876  0.4303 -0.4140
 5855SOL    HW119006   4.232   5.413  11.446  1.8728  2.6096  0.2709
 5855SOL    HW219007   4.091   5.384  11.493  1.5172 -1.0459 -2.5963
 5856SOL     OW19008   6.423   5.571   6.570  0.1769  0.9542 -0.0437
 5856SOL    HW119009   6.463   5.593   6.654 -2.0368 -0.1582  1.3881
 5856SOL    HW219010   6.452   5.482   6.552  2.0919  1.7976 -1.4354
 5857SOL     OW19011   7.569   7.478   8.069 -0.2379  0.3219 -0.3287
 5857SOL    HW119012   7.662   7.490   8.052  0.3235 -0.9538  1.5298
 5857SOL    HW219013   7.564   7.458   8.163 -2.2703 -0.7044 -0.5951
 5858SOL     OW19014   6.056   2.284   2.856  0.5159 -0.0864  0.1397
 5858SOL    HW119015   5.976   2.270   2.804  0.5509 -0.5047  0.2008
 5858SOL    HW219016   6.125   2.294   2.790  0.3986  0.3893  0.0835
 5859SOL     OW19017   2.185   0.463   1.437 -0.3340 -0.0504 -0.3436
 5859SOL    HW119018   2.096   0.493   1.454 -1.3509 -2.8843 -0.0905
 5859SOL    HW219019   2.236   0.543   1.423 -3.1858  1.6327 -2.0079
 5860SOL     OW19020   3.280   3.711   1.855  0.0035 -0.0916 -0.3092
 5860SOL    HW119021   3.310   3.671   1.773 -0.2522  0.4067 -0.6483
 5860SOL    HW219022   3.311   3.651   1.923  2.0775  0.5480 -0.6081
 5861SOL     OW19023   5.628   3.653   2.693  0.4657 -0.3289 -0.1760
 5861SOL    HW119024   5.532   3.658   2.700  0.4909 -0.6884  0.5868
 5861SOL    HW219025   5.653   3.593   2.763  1.1524 -1.2945 -1.2311
 5862SOL     OW19026   5.225   3.763   0.328  0.1496  0.1552  0.4125
 5862SOL    HW119027   5.268   3.818   0.394 -0.7190  0.2131  0.9491
 5862SOL    HW219028   5.182   3.694   0.379 -0.5969  0.2442 -0.0813
 5863SOL     OW19029   3.212   1.787   0.593  0.2719 -0.5296 -0.0291
 5863SOL    HW119030   3.161   1.714   0.558 -2.5365  0.2348  2.1382
 5863SOL    HW219031   3.296   1.747   0.617 -0.6122 -2.7201 -0.2928
 5864SOL     OW19032   4.475   0.544  10.993  0.1204 -0.0202 -0.0500
 5864SOL    HW119033   4.429   0.508  11.069 -0.0572  2.4138  1.0758
 5864SOL    HW219034   4.505   0.630  11.021  3.0432 -0.3819 -1.6332
 5865SOL     OW19035   4.167   2.367   5.753  0.0196 -0.1248 -0.4643
 5865SOL    HW119036   4.084   2.403   5.723  0.7587  1.4646 -0.7053
 5865SOL    HW219037   4.233   2.411   5.699  1.0415 -1.0464  0.0034
 5866SOL     OW19038   5.393   7.851   7.273 -0.6029  0.4193  0.6123
 5866SOL    HW119039   5.372   7.924   7.332  1.5019  0.9489  0.7890
 5866SOL    HW219040   5.365   7.881   7.187 -0.7060  1.0038  0.8431
 5867SOL     OW19041   1.907   4.901   7.801 -0.1079  0.2779  0.0171
 5867SOL    HW119042   1.919   4.888   7.707  0.0260 -0.4704  0.1340
 5867SOL    HW219043   1.958   4.980   7.821  0.3718  0.0848 -0.4276
 5868SOL     OW19044   3.569   6.272   5.035  0.7491 -0.0093  0.3198
 5868SOL    HW119045   3.515   6.339   4.991  0.0065 -1.3030 -0.8236
 5868SOL    HW219046   3.658   6.307   5.031  0.3459  1.0394 -0.0004
 5869SOL     OW19047   5.234   7.533   9.791 -0.5808 -0.2715  0.6012
 5869SOL    HW119048   5.187   7.450   9.805 -1.1783  0.1838  1.4041
 5869SOL    HW219049   5.292   7.540   9.867 -0.7030  0.1521  0.6573
 5870SOL     OW19050   2.987   5.008   7.949  0.3227 -0.8287  0.4554
 5870SOL    HW119051   3.047   4.949   7.993  0.9989 -0.1054  0.5220
 5870SOL    HW219052   2.994   5.090   7.998  0.8011 -0.1260 -0.7547
 5871SOL     OW19053   1.064   4.516  10.228 -0.0877 -0.6063 -0.0322
 5871SOL    HW119054   1.078   4.494  10.321 -1.0026 -1.9748 -0.1835
 5871SOL    HW219055   1.042   4.432  10.187 -1.5880  0.2645 -1.1144
 5872SOL     OW19056   1.162   1.033  10.267  0.1708  0.0961  0.0670
 5872SOL    HW119057   1.213   1.098  10.315  0.8341 -1.2098  1.2210
 5872SOL    HW219058   1.070   1.056  10.284  0.4019  0.0997  1.3651
 5873SOL     OW19059   4.313   6.800  11.843 -0.1890  0.3973  0.5484
 5873SOL    HW119060   4.382   6.854  11.807  0.6257 -1.0280 -0.1271
 5873SOL    HW219061   4.291   6.738  11.773 -0.8073 -0.3854  1.4011
 5874SOL     OW19062   7.350   2.930   7.214  0.0318  0.1674  0.7059
 5874SOL    HW119063   7.256   2.941   7.230  0.0783  0.9653  0.4752
 5874SOL    HW219064   7.367   2.838   7.234 -1.0420 -0.3176 -0.4855
 5875SOL     OW19065   0.588   3.139   1.048 -0.0018 -0.0342  0.0712
 5875SOL    HW119066   0.610   3.051   1.078 -0.0653  0.4294  1.5785
 5875SOL    HW219067   0.493   3.145   1.060  0.0820  0.4274  0.5462
 5876SOL     OW19068   4.630   7.676   7.654 -0.1842 -0.5098 -0.0570
 5876SOL    HW119069   4.667   7.725   7.728  0.0063 -1.8198  0.7536
 5876SOL    HW219070   4.692   7.690   7.583 -0.7857  1.4518 -0.2737
 5877SOL     OW19071   1.562   3.194   0.888  0.6556  0.4774 -0.1205
 5877SOL    HW119072   1.622   3.160   0.954  0.9250  1.3766  0.1173
 5877SOL    HW219073   1.619   3.238   0.825  0.3638  0.0112 -0.7157
 5878SOL     OW19074   4.603   7.518   4.723  0.4706 -0.2965  0.2162
 5878SOL    HW119075   4.566   7.493   4.808 -0.3505 -1.1290 -0.3578
 5878SOL    HW219076   4.685   7.469   4.718  0.2151 -0.7363  0.2690
 5879SOL     OW19077   4.355   3.871   8.299 -0.6167 -0.0391  0.4847
 5879SOL    HW119078   4.314   3.872   8.212  0.5089  0.3336 -0.0715
 5879SOL    HW219079   4.432   3.815   8.288 -1.2527 -1.2010  1.6534
 5880SOL     OW19080   6.842   2.976  11.753  0.3205 -0.3425  0.0273
 5880SOL    HW119081   6.755   3.017  11.756  0.3245 -0.3928  2.0375
 5880SOL    HW219082   6.824   2.882  11.750  0.3234 -0.3142 -1.3856
 5881SOL     OW19083   7.238   5.607   6.612 -0.0201  0.1983  0.2987
 5881SOL    HW119084   7.258   5.620   6.704 -0.1616  1.4841  0.1684
 5881SOL    HW219085   7.251   5.514   6.597 -1.3579 -0.2915  1.9299
 5882SOL     OW19086   5.913   5.105   3.621  0.0918 -0.3394 -0.0093
 5882SOL    HW119087   5.950   5.172   3.679 -0.6967 -1.7092  2.2129
 5882SOL    HW219088   5.949   5.022   3.653 -0.7668 -1.2140 -1.1811
 5883SOL     OW19089   3.867   7.220   6.958 -0.0606 -0.3511 -0.1405
 5883SOL    HW119090   3.930   7.149   6.946  0.1671 -0.2195  0.2561
 5883SOL    HW219091   3.784   7.176   6.976  0.1017 -0.5164  0.2086
 5884SOL     OW19092   1.389   1.530  12.238 -0.3164  0.2012  0.3209
 5884SOL    HW119093   1.386   1.626  12.244  0.1898  0.2139  0.4433
 5884SOL    HW219094   1.474   1.511  12.197 -0.8555 -0.1586 -0.6606
 5885SOL     OW19095   1.633   1.467  12.092  0.3693 -0.3467 -0.1312
 5885SOL    HW119096   1.696   1.536  12.074  1.4591 -1.5237 -1.0523
 5885SOL    HW219097   1.563   1.482  12.029  0.6743 -0.1719 -0.4321
 5886SOL     OW19098   1.273   0.568  10.367  0.5515  0.4046 -0.4965
 5886SOL    HW119099   1.233   0.489  10.329  0.8834  0.3719 -0.7849
 5886SOL    HW219100   1.363   0.542  10.387  0.4043  0.4493  0.2467
 5887SOL     OW19101   7.705   3.272   1.742 -0.2024 -0.5013 -0.1492
 5887SOL    HW119102   7.728   3.227   1.824  1.4002  0.0644 -0.2469
 5887SOL    HW219103   7.679   3.202   1.683 -1.0621 -0.9520  0.7337
 5888SOL     OW19104   2.266   5.830   1.666 -0.3214  0.2872 -0.5238
 5888SOL    HW119105   2.213   5.842   1.587  1.9831  0.5308 -2.1117
 5888SOL    HW219106   2.297   5.917   1.688 -1.1753  0.2699  0.8905
 5889SOL     OW19107   2.032   7.801   4.435  0.1786 -0.1455  0.2483
 5889SOL    HW119108   1.987   7.740   4.493  0.0982 -0.6671 -0.3461
 5889SOL    HW219109   1.961   7.844   4.386  0.2734 -0.2086  0.0527
 5890SOL     OW19110   1.222   6.072   1.568  0.5281 -0.0119 -0.2530
 5890SOL    HW119111   1.247   5.982   1.586  3.2113  0.9957  1.7567
 5890SOL    HW219112   1.304   6.115   1.544 -0.3502  2.2601  0.5546
 5891SOL     OW19113   2.886   1.810   2.580 -0.8351 -0.1097 -0.2517
 5891SOL    HW119114   2.980   1.827   2.590 -0.6853 -0.5286 -0.9214
 5891SOL    HW219115   2.875   1.719   2.609 -1.0041 -0.1272 -0.3713
 5892SOL     OW19116   1.539   4.659  11.745 -0.4753  0.8453  0.2047
 5892SOL    HW119117   1.486   4.713  11.687 -2.1810  0.9323  1.7373
 5892SOL    HW219118   1.556   4.715  11.821  0.8429  0.4083  0.2693
 5893SOL     OW19119   1.997   3.887   1.966  0.3798 -0.4280  1.1044
 5893SOL    HW119120   1.989   3.881   1.870  0.9256  3.7620  0.6017
 5893SOL    HW219121   2.082   3.847   1.985  1.5420  1.0846 -0.5959
 5894SOL     OW19122   5.250   3.976  11.670 -0.4710 -0.0989 -0.0755
 5894SOL    HW119123   5.173   4.020  11.635 -0.9039 -0.0723  0.8947
 5894SOL    HW219124   5.324   4.024  11.631 -0.9237  1.4953  0.9056
 5895SOL     OW19125   0.389   5.055   8.818  0.2431  0.0134  0.0607
 5895SOL    HW119126   0.344   5.126   8.772 -0.5955 -0.2871  0.3940
 5895SOL    HW219127   0.457   5.098   8.869 -0.2681  0.5830  0.2659
 5896SOL     OW19128   7.422   7.131   8.624  0.1977 -0.0567 -0.0172
 5896SOL    HW119129   7.361   7.141   8.550 -0.7214 -1.8550  0.4528
 5896SOL    HW219130   7.480   7.059   8.598 -0.8125 -1.4425  1.4091
 5897SOL     OW19131   1.782   4.438   7.078 -0.2713 -0.5141  0.7911
 5897SOL    HW119132   1.855   4.403   7.027 -0.4205 -0.3284  0.4455
 5897SOL    HW219133   1.711   4.449   7.014  0.3645  2.3102  0.4626
 5898SOL     OW19134   7.645   2.214  10.839 -0.4069 -1.0923 -0.4856
 5898SOL    HW119135   7.643   2.254  10.925 -0.5311  3.1577 -2.2483
 5898SOL    HW219136   7.735   2.183  10.829  0.0476 -0.1602  0.5576
 5899SOL     OW19137   4.605   0.013   8.360  0.3612  0.2268  0.2936
 5899SOL    HW119138   4.661   0.044   8.289  1.2218  2.4252  1.7867
 5899SOL    HW219139   4.546   0.087   8.377 -1.1279 -0.9994  0.5948
 5900SOL     OW19140   0.465   4.551   1.700 -0.1909  0.3804 -0.5254
 5900SOL    HW119141   0.446   4.579   1.790  0.0191 -0.5363 -0.1880
 5900SOL    HW219142   0.559   4.531   1.701  0.3234  2.4522 -1.5254
 5901SOL     OW19143   1.187   7.703   1.020 -0.2358 -0.1890 -0.1353
 5901SOL    HW119144   1.165   7.795   1.038  0.5019  0.5980 -2.8034
 5901SOL    HW219145   1.273   7.707   0.977  0.0039 -2.1950  0.0642
 5902SOL     OW19146   7.387   3.244   5.859  0.3301  0.2490 -0.5218
 5902SOL    HW119147   7.403   3.160   5.817  0.8461 -1.0580  2.0390
 5902SOL    HW219148   7.295   3.263   5.842  0.7167  0.2792 -2.8788
 5903SOL     OW19149   1.870   5.479   1.594 -0.6386 -0.1084  0.8637
 5903SOL    HW119150   1.791   5.527   1.568  0.7381  0.6400 -2.4308
 5903SOL    HW219151   1.927   5.546   1.631 -0.1236  0.1523 -0.3486
 5904SOL     OW19152   1.753   1.291  12.260 -0.0935  0.2695  0.3010
 5904SOL    HW119153   1.789   1.372  12.295 -0.6218  0.8681 -0.4886
 5904SOL    HW219154   1.703   1.319  12.183  0.4518 -0.9080 -0.5077
 5905SOL     OW19155   1.053   4.984   5.332  0.2763 -0.3228 -0.8964
 5905SOL    HW119156   1.044   5.039   5.411  1.7943  0.5605 -1.2934
 5905SOL    HW219157   1.140   5.005   5.299 -0.3976 -0.5624 -2.9116
 5906SOL     OW19158   4.902   5.157   4.731 -0.1715  0.1483  0.2601
 5906SOL    HW119159   4.924   5.238   4.685  0.6306  1.4933  2.8218
 5906SOL    HW219160   4.807   5.153   4.729 -0.1751  0.1726 -1.3924
 5907SOL     OW19161   7.722   0.364   8.953 -0.5357  0.3492 -0.3105
 5907SOL    HW119162   7.695   0.272   8.956 -1.8236  0.7309  0.1051
 5907SOL    HW219163   7.724   0.385   8.859  0.7504 -0.3518 -0.4755
 5908SOL     OW19164   0.365   2.301   9.841  0.0840 -0.5827  0.1861
 5908SOL    HW119165   0.319   2.380   9.868  0.1270 -0.1095 -1.0735
 5908SOL    HW219166   0.455   2.331   9.823 -0.0601 -0.7851 -0.9049
 5909SOL     OW19167   6.533   0.500   7.834  0.4520 -0.1355  0.0845
 5909SOL    HW119168   6.452   0.528   7.792  0.1621 -0.1981  0.5965
 5909SOL    HW219169   6.510   0.490   7.926  1.6128  2.0802  0.6758
 5910SOL     OW19170   4.506   4.625   1.341  0.2850  0.4072  0.1330
 5910SOL    HW119171   4.438   4.688   1.364 -0.0720 -0.3008  1.0990
 5910SOL    HW219172   4.500   4.557   1.408 -0.4004 -1.4736 -1.7143
 5911SOL     OW19173   0.181   1.832  10.840  0.1295  0.2650 -0.4005
 5911SOL    HW119174   0.219   1.882  10.912  0.0561 -0.4669  0.1659
 5911SOL    HW219175   0.217   1.872  10.761  1.3369  0.1876  0.0869
 5912SOL     OW19176   1.069   2.648   3.076  0.3995  0.4213  0.0249
 5912SOL    HW119177   1.110   2.711   3.135  1.1426 -0.6223  0.6522
 5912SOL    HW219178   0.993   2.616   3.123  2.1683 -2.0053  1.4071
 5913SOL     OW19179   1.084   1.889   4.407  0.7013  0.2316 -0.0456
 5913SOL    HW119180   1.032   1.961   4.442  1.5059  0.9929 -0.3657
 5913SOL    HW219181   1.111   1.840   4.484  0.0444  0.2039  0.1695
 5914SOL     OW19182   7.857   5.820   8.793 -0.3282  0.2780 -0.0489
 5914SOL    HW119183   7.834   5.737   8.836  1.7288 -0.0821  0.4835
 5914SOL    HW219184   7.853   5.800   8.700 -0.5200 -0.2184  0.0600
 5915SOL     OW19185   4.678   3.235   1.371 -0.2250  0.1315  0.6716
 5915SOL    HW119186   4.653   3.267   1.284 -0.3199 -0.6184  0.4111
 5915SOL    HW219187   4.747   3.170   1.353  0.6720  0.8895  1.2536
 5916SOL     OW19188   3.715   2.176   4.202 -0.8093 -0.0253  0.7391
 5916SOL    HW119189   3.803   2.207   4.224 -0.9007  1.3051 -0.5417
 5916SOL    HW219190   3.730   2.095   4.154 -0.4450 -1.1001  2.6026
 5917SOL     OW19191   3.113   4.540   6.636 -0.1961  0.0337 -0.0563
 5917SOL    HW119192   3.055   4.572   6.567 -0.1376 -0.1581 -0.1959
 5917SOL    HW219193   3.059   4.541   6.715 -0.0382  0.9843  0.0515
 5918SOL     OW19194   3.187   7.892   6.236 -0.2368 -0.1726  0.0675
 5918SOL    HW119195   3.193   7.987   6.248 -0.7250 -0.0699 -0.4571
 5918SOL    HW219196   3.168   7.858   6.323  1.5394  0.0519  0.5852
 5919SOL     OW19197   5.932   1.201   3.579  0.1352 -0.7733 -0.6024
 5919SOL    HW119198   5.957   1.281   3.533 -0.1104 -1.3503 -1.7827
 5919SOL    HW219199   5.968   1.131   3.525  0.2329 -1.4697  0.3473
 5920SOL     OW19200   5.720   2.050   9.839  0.1724 -0.2443 -0.0899
 5920SOL    HW119201   5.762   2.007   9.914  0.4443 -1.4901 -0.9270
 5920SOL    HW219202   5.763   2.136   9.834 -0.9479  0.5389  2.1060
 5921SOL     OW19203   2.163   6.900   8.370  0.5919  0.0258  0.1939
 5921SOL    HW119204   2.142   6.985   8.408  0.1199 -0.1535  0.3323
 5921SOL    HW219205   2.110   6.838   8.419  0.6501 -0.3082 -0.1671
 5922SOL     OW19206   2.969   5.591   8.018 -0.3507  0.6586  0.0679
 5922SOL    HW119207   2.977   5.679   8.055 -0.3165  1.3069 -1.4280
 5922SOL    HW219208   2.875   5.572   8.023 -0.5039  1.2131 -0.5461
 5923SOL     OW19209   4.706   5.173   9.198  0.5583 -0.5657 -0.4433
 5923SOL    HW119210   4.680   5.080   9.196 -0.3230 -0.3171 -1.0607
 5923SOL    HW219211   4.624   5.220   9.206  0.8662  0.2191 -1.6190
 5924SOL     OW19212   3.516   6.186  11.224 -0.0443  0.1984  0.1973
 5924SOL    HW119213   3.584   6.195  11.291  0.1442  0.6378 -0.0463
 5924SOL    HW219214   3.468   6.269  11.227  0.2002  0.3780 -0.4536
 5925SOL     OW19215   6.026   6.420  11.165 -0.1184  0.7717 -0.8805
 5925SOL    HW119216   6.037   6.432  11.260 -2.4996 -0.5363 -0.3504
 5925SOL    HW219217   5.979   6.498  11.137  1.0092  1.3840 -1.0937
 5926SOL     OW19218   3.557   7.112  10.157  0.5256 -0.1970 -0.1869
 5926SOL    HW119219   3.467   7.089  10.137 -0.5996  2.6997  0.9554
 5926SOL    HW219220   3.559   7.123  10.252  1.8607  0.4891 -0.2606
 5927SOL     OW19221   5.452   1.338   0.028 -0.5702  0.3983  0.3033
 5927SOL    HW119222   5.505   1.260   0.017 -0.3364  0.5332  0.4628
 5927SOL    HW219223   5.444   1.349   0.123 -0.1500  0.8656  0.2919
 5928SOL     OW19224   4.526   7.874   7.193 -0.1400 -0.3438  0.6735
 5928SOL    HW119225   4.483   7.838   7.270 -1.7401  0.3651  0.1523
 5928SOL    HW219226   4.567   7.955   7.223  0.3170 -0.7173  1.0520
 5929SOL     OW19227   5.558   0.493   9.983  0.3169  0.1657 -0.7937
 5929SOL    HW119228   5.509   0.415  10.006 -0.0039  0.6563  0.2667
 5929SOL    HW219229   5.569   0.540  10.066  2.9023 -0.1079 -0.9125
 5930SOL     OW19230   4.107   7.599  10.932  0.4396 -0.9762  0.4281
 5930SOL    HW119231   4.070   7.511  10.930 -2.1960  0.0681  0.3046
 5930SOL    HW219232   4.146   7.611  10.846  0.2380 -1.7810  0.2212
 5931SOL     OW19233   5.475   0.493   0.367 -0.1935  0.6304 -0.0071
 5931SOL    HW119234   5.564   0.528   0.371 -0.3802  1.0845  0.2802
 5931SOL    HW219235   5.470   0.432   0.441 -0.1483  0.6717  0.0300
 5932SOL     OW19236   3.077   7.658   1.576  0.0558 -0.5238 -0.5526
 5932SOL    HW119237   3.137   7.584   1.586  0.3210 -0.1681  0.6941
 5932SOL    HW219238   3.121   7.716   1.514  0.5220 -0.7588 -0.4497
 5933SOL     OW19239   1.145   4.718   8.270 -0.4613  0.1139 -0.1653
 5933SOL    HW119240   1.216   4.755   8.321  0.9054 -1.6895 -0.6653
 5933SOL    HW219241   1.107   4.793   8.223  1.4329  1.0506 -0.2695
 5934SOL     OW19242   2.967   0.591   5.786 -0.0163  0.3463  0.5570
 5934SOL    HW119243   3.039   0.646   5.818  0.4467 -0.4488  0.9124
 5934SOL    HW219244   2.912   0.578   5.864 -0.6055  1.0268  0.2654
 5935SOL     OW19245   2.990   0.092   1.284  0.7659  0.0059 -0.1647
 5935SOL    HW119246   3.046   0.064   1.357  0.0752  0.6579  0.6212
 5935SOL    HW219247   2.934   0.016   1.266  1.2583 -0.3236 -0.3502
 5936SOL     OW19248   3.427   4.390  11.055  0.5421 -0.2789 -0.2152
 5936SOL    HW119249   3.522   4.374  11.052  0.5785  0.0177 -1.3677
 5936SOL    HW219250   3.416   4.458  11.120  1.3618  1.0365 -1.3913
 5937SOL     OW19251   0.492   1.050   3.475 -0.7069  0.8836  0.1780
 5937SOL    HW119252   0.402   1.063   3.505 -0.9309 -0.7991  0.3257
 5937SOL    HW219253   0.484   1.040   3.380 -0.8300 -0.2825  0.2953
 5938SOL     OW19254   7.960   0.338   9.549 -0.3498  0.4847  0.1293
 5938SOL    HW119255   7.939   0.405   9.614  0.6417  0.2610  0.7130
 5938SOL    HW219256   7.997   0.386   9.475 -0.5572  0.6609  0.1404
 5939SOL     OW19257   6.262   0.097  12.382  0.1092  0.1386  0.0676
 5939SOL    HW119258   6.319   0.174  12.381 -1.1584  1.1320  1.0028
 5939SOL    HW219259   6.279   0.054  12.298  0.7160  1.5420 -0.5638
 5940SOL     OW19260   0.564   3.475  10.935  0.1926 -0.3738 -0.2052
 5940SOL    HW119261   0.628   3.404  10.920 -0.2358 -0.7741 -0.1598
 5940SOL    HW219262   0.579   3.536  10.862  0.1753 -0.8059 -0.5767
 5941SOL     OW19263   0.006   4.648   5.674  0.4616  0.1716 -0.3686
 5941SOL    HW119264   0.085   4.702   5.663  1.0232 -0.8647 -1.7305
 5941SOL    HW219265  -0.039   4.653   5.590 -0.3327 -0.1750  0.0254
 5942SOL     OW19266   6.802   6.406   1.283 -0.4301 -0.0509 -0.4244
 5942SOL    HW119267   6.867   6.340   1.258  0.3320  0.8273 -0.8293
 5942SOL    HW219268   6.830   6.436   1.370 -0.5047  0.0673 -0.4410
 5943SOL     OW19269   0.942   0.782  10.156 -0.1303  0.2986  0.6290
 5943SOL    HW119270   1.019   0.775  10.100  0.5612  3.3856  1.0084
 5943SOL    HW219271   0.976   0.779  10.245 -0.7446 -0.6089  0.8437
 5944SOL     OW19272   1.644   1.184   0.053 -0.2927 -0.0991  0.6423
 5944SOL    HW119273   1.704   1.232  -0.004  1.2536 -1.3512  1.1158
 5944SOL    HW219274   1.615   1.109   0.001  1.6531 -1.6227  1.6015
 5945SOL     OW19275   1.086   4.952   3.234  0.0908  0.1569  0.2767
 5945SOL    HW119276   1.167   4.998   3.210  0.9935 -0.9176  1.1870
 5945SOL    HW219277   1.017   5.017   3.220  1.1599  1.2599 -0.0349
 5946SOL     OW19278   0.364   6.823   4.706  0.6852 -0.2996  0.4486
 5946SOL    HW119279   0.355   6.808   4.800  0.7855 -0.3901  0.4440
 5946SOL    HW219280   0.339   6.740   4.666 -2.6673  0.6756  0.2228
 5947SOL     OW19281   3.146   2.884   3.720  0.0764 -0.2129 -0.8002
 5947SOL    HW119282   3.063   2.910   3.760  0.5699  1.6399 -0.8794
 5947SOL    HW219283   3.170   2.959   3.665  1.7725 -0.7402 -0.8158
 5948SOL     OW19284   7.873   7.873   8.606  0.6496  0.6994  0.6251
 5948SOL    HW119285   7.822   7.803   8.565 -1.6646  1.1127  2.5612
 5948SOL    HW219286   7.858   7.949   8.550 -0.8063  0.7693  1.0679
 5949SOL     OW19287   3.517   1.815   1.822 -0.3520  0.1274 -0.1391
 5949SOL    HW119288   3.506   1.834   1.915  0.2473  0.0612 -0.0496
 5949SOL    HW219289   3.500   1.899   1.779  4.1730  1.6014  0.3823
 5950SOL     OW19290   2.067   6.930   0.437  0.0226  0.1131 -0.4175
 5950SOL    HW119291   2.009   7.003   0.456 -0.5180 -0.8067  1.7863
 5950SOL    HW219292   2.107   6.909   0.521  1.0721 -1.3562 -1.2433
 5951SOL     OW19293   4.977   5.139   8.551  0.3000 -0.5179  0.3152
 5951SOL    HW119294   4.928   5.140   8.469  0.1774 -0.9679  0.3822
 5951SOL    HW219295   4.932   5.202   8.607  1.3168  1.0195 -0.4949
 5952SOL     OW19296   2.270   2.835   3.264 -0.1969 -0.0239 -0.7349
 5952SOL    HW119297   2.326   2.770   3.220  0.1646 -0.0495 -0.2415
 5952SOL    HW219298   2.290   2.917   3.219 -0.3766 -0.1809 -1.1105
 5953SOL     OW19299   6.969   0.519   5.689 -1.0236  0.2901  0.3927
 5953SOL    HW119300   7.005   0.607   5.701 -0.4839  0.1690 -0.3210
 5953SOL    HW219301   7.016   0.466   5.754 -1.0582  0.4510  0.5501
 5954SOL     OW19302   4.563   7.882   9.781  0.0762  1.4012 -0.3499
 5954SOL    HW119303   4.623   7.904   9.710  0.6619  1.8063  0.2530
 5954SOL    HW219304   4.560   7.961   9.835 -0.6453  1.2236 -0.1252
 5955SOL     OW19305   7.374   4.059  12.339 -0.0382 -0.3641 -0.9288
 5955SOL    HW119306   7.427   4.005  12.281  2.2514  0.9449 -0.1923
 5955SOL    HW219307   7.356   4.138  12.288  4.4010  2.1024  0.7122
 5956SOL     OW19308   5.111   5.268   7.294  0.7351  0.0249  0.1283
 5956SOL    HW119309   5.137   5.349   7.249  0.5800  0.0296  0.0479
 5956SOL    HW219310   5.156   5.273   7.378 -1.0852  1.3200  1.0893
 5957SOL     OW19311   5.018   7.865   1.147 -0.3104  0.2136 -1.0625
 5957SOL    HW119312   4.961   7.942   1.142 -1.1734 -0.2906  0.3849
 5957SOL    HW219313   5.018   7.829   1.059 -0.0141  1.7644 -1.7269
 5958SOL     OW19314   3.769   1.508   8.827 -0.1894  0.3507  0.3878
 5958SOL    HW119315   3.804   1.551   8.749  0.4417 -1.5374 -0.4252
 5958SOL    HW219316   3.707   1.443   8.793 -0.4157 -0.0431  1.5123
 5959SOL     OW19317   4.060   4.602   0.252  0.5420  0.8803 -0.2369
 5959SOL    HW119318   4.139   4.628   0.300  0.9742 -1.5627  0.4802
 5959SOL    HW219319   4.088   4.529   0.196 -0.9184  0.8826 -1.0399
 5960SOL     OW19320   2.977   3.408  12.150 -0.1777 -0.3513  0.6116
 5960SOL    HW119321   2.899   3.431  12.101  0.1315 -1.5626 -0.5179
 5960SOL    HW219322   3.041   3.476  12.126  0.0017 -0.9761 -0.7979
 5961SOL     OW19323   4.393   4.296   7.747  0.0962  0.3668  0.6624
 5961SOL    HW119324   4.319   4.291   7.687 -0.6610 -0.0701  1.6051
 5961SOL    HW219325   4.393   4.211   7.792 -0.3063  1.2389  2.3691
 5962SOL     OW19326   1.200   6.992   4.312  0.1331  0.4330 -0.0605
 5962SOL    HW119327   1.250   6.975   4.391  2.2639  1.9826 -0.9808
 5962SOL    HW219328   1.214   6.914   4.257  1.0610  0.5937 -0.0627
 5963SOL     OW19329   4.695   2.673  11.700  0.2070 -0.0792  0.0389
 5963SOL    HW119330   4.635   2.726  11.649 -1.0554 -0.4589  1.0703
 5963SOL    HW219331   4.742   2.620  11.636 -1.1489 -0.3629 -0.7438
 5964SOL     OW19332   1.259   3.087   9.156 -0.2463 -0.4284 -0.2571
 5964SOL    HW119333   1.168   3.081   9.126 -0.5948 -1.2272  0.9122
 5964SOL    HW219334   1.262   3.168   9.207 -0.0243  0.1490 -1.1645
 5965SOL     OW19335   0.926   4.530   9.585  0.2104 -0.1055 -0.2585
 5965SOL    HW119336   0.977   4.579   9.650  0.8774 -0.4450 -0.5136
 5965SOL    HW219337   0.840   4.571   9.586  0.0141 -0.5158  1.2796
 5966SOL     OW19338   7.949   0.010   7.470 -0.3402  0.2898  0.2488
 5966SOL    HW119339   8.003  -0.062   7.438  1.7571  1.3849  1.1695
 5966SOL    HW219340   7.859  -0.020   7.454  0.4823 -1.3553 -1.8698
 5967SOL     OW19341   3.859   4.348   1.229 -0.2295  0.5047  0.5720
 5967SOL    HW119342   3.881   4.286   1.159  1.7518  0.8720  0.7998
 5967SOL    HW219343   3.794   4.302   1.282 -0.5500 -0.4334 -0.5771
 5968SOL     OW19344   3.275   1.085   9.494 -0.1523  0.2953  0.2778
 5968SOL    HW119345   3.213   1.072   9.566 -0.5081  2.6279  0.4858
 5968SOL    HW219346   3.221   1.110   9.419  0.4102  1.2133  0.1520
 5969SOL     OW19347   0.671   6.961  11.071  0.1197 -0.1263  0.1130
 5969SOL    HW119348   0.592   6.989  11.119  0.6468  0.0728  0.8791
 5969SOL    HW219349   0.638   6.935  10.985 -0.5461  1.7265 -0.2409
 5970SOL     OW19350   6.322   7.284   7.076  0.2443  0.2894 -0.0009
 5970SOL    HW119351   6.328   7.328   7.161  2.0389  0.7925 -0.3459
 5970SOL    HW219352   6.406   7.239   7.067  0.0000  0.0888 -1.4209
 5971SOL     OW19353   4.653   2.003   4.514  0.2090 -0.2636  0.0291
 5971SOL    HW119354   4.638   2.093   4.484  0.4825 -0.5025 -0.8581
 5971SOL    HW219355   4.594   1.993   4.589  0.4743  0.7784  0.3943
 5972SOL     OW19356   5.425   1.843   2.081 -0.0250  0.3335  0.1116
 5972SOL    HW119357   5.436   1.937   2.088 -0.4810  0.3479  0.7215
 5972SOL    HW219358   5.337   1.831   2.045 -0.1394  0.1373  0.4485
 5973SOL     OW19359   6.949   3.096  10.109  0.4596  0.0482  0.5948
 5973SOL    HW119360   7.008   3.101  10.184 -0.1925  1.3687  1.0512
 5973SOL    HW219361   6.981   3.163  10.049 -0.6871  0.9553  0.9533
 5974SOL     OW19362   1.814   3.595  11.726 -0.3323 -0.7427  0.7040
 5974SOL    HW119363   1.873   3.639  11.664 -0.3766 -1.6507 -0.0122
 5974SOL    HW219364   1.729   3.598  11.683 -0.2611 -1.8499  0.4656
 5975SOL     OW19365   4.000   1.991   4.327  0.2473 -0.0814 -0.0988
 5975SOL    HW119366   4.065   1.997   4.397 -0.8362  0.6588  0.8890
 5975SOL    HW219367   3.927   1.943   4.366 -0.7945  1.2268 -0.3781
 5976SOL     OW19368   0.225   1.251   6.037 -0.9695  0.3943  0.8426
 5976SOL    HW119369   0.285   1.188   5.996 -2.1193 -1.3856  1.7727
 5976SOL    HW219370   0.274   1.333   6.039  0.7259 -0.5436 -0.1049
 5977SOL     OW19371   4.590   1.986   6.783 -0.3005 -0.4953 -0.2884
 5977SOL    HW119372   4.628   1.944   6.706  1.7465 -1.2067  1.0203
 5977SOL    HW219373   4.640   2.067   6.793  0.8316 -1.3485  1.3619
 5978SOL     OW19374   5.792   5.407   5.296  0.1848 -0.7162  1.0290
 5978SOL    HW119375   5.787   5.497   5.325  1.0627 -0.3455  0.1127
 5978SOL    HW219376   5.707   5.369   5.317 -1.3552  1.1758 -1.3429
 5979SOL     OW19377   0.574   3.874   8.208  0.1182 -0.4500 -0.1414
 5979SOL    HW119378   0.599   3.941   8.272  0.9776 -1.4082  0.5641
 5979SOL    HW219379   0.479   3.881   8.202  0.1696  0.6299  0.1412
 5980SOL     OW19380   3.182   7.774   8.404  0.0939  0.7953 -0.4824
 5980SOL    HW119381   3.108   7.828   8.376 -1.4663 -1.3518 -0.7125
 5980SOL    HW219382   3.169   7.690   8.361  2.0563 -0.0465  0.4135
 5981SOL     OW19383   4.705   4.813   3.833  0.3581  0.2026 -0.2128
 5981SOL    HW119384   4.782   4.805   3.889 -1.1075 -1.8322  1.6927
 5981SOL    HW219385   4.665   4.896   3.858  1.1502  0.5922 -0.2137
 5982SOL     OW19386   7.573   6.775   3.253 -0.0904 -0.1662 -0.1503
 5982SOL    HW119387   7.620   6.804   3.174 -0.1144 -0.2577 -0.1985
 5982SOL    HW219388   7.550   6.684   3.235 -3.4351  0.8437 -1.6198
 5983SOL     OW19389   7.408   3.058   3.500 -0.0875 -0.0168  0.1595
 5983SOL    HW119390   7.434   3.142   3.463  0.2237 -0.4480 -0.6050
 5983SOL    HW219391   7.409   2.998   3.427 -1.2302 -0.4967  0.5170
 5984SOL     OW19392   2.350   2.327   3.279  0.4426  0.0295  0.3495
 5984SOL    HW119393   2.347   2.231   3.271  0.5805  0.1308 -1.2577
 5984SOL    HW219394   2.443   2.348   3.273  0.3627  0.3043  0.0824
 5985SOL     OW19395   2.003   0.826   8.788  0.1356 -0.0265 -0.0275
 5985SOL    HW119396   1.944   0.863   8.723 -1.4839  0.7203  1.7739
 5985SOL    HW219397   2.007   0.893   8.857 -0.3564 -1.8379  1.8511
 5986SOL     OW19398   5.523   4.006  11.583  0.1261  0.1537  0.3095
 5986SOL    HW119399   5.578   4.060  11.641 -1.1135  0.2321  1.4529
 5986SOL    HW219400   5.584   3.941  11.547  1.3477  1.3819  0.0636
 5987SOL     OW19401   4.799   1.114   5.325  0.0927  0.1811 -0.1033
 5987SOL    HW119402   4.718   1.144   5.283  0.3687  1.6926  0.3687
 5987SOL    HW219403   4.771   1.047   5.387 -0.8507  0.8344  0.2085
 5988SOL     OW19404   3.613   3.926   1.167  0.5902 -0.3415  0.3848
 5988SOL    HW119405   3.646   3.925   1.077 -0.9728 -1.4992 -0.2224
 5988SOL    HW219406   3.530   3.974   1.162 -0.3107 -1.7828  0.8593
 5989SOL     OW19407   4.905   1.664  10.356 -0.0519  0.1998  0.5053
 5989SOL    HW119408   4.878   1.580  10.319 -0.4298  0.7828 -0.5699
 5989SOL    HW219409   4.824   1.702  10.390  0.1998 -0.0754  1.4561
 5990SOL     OW19410   3.314   7.876   5.486 -0.2842 -0.0157 -0.0828
 5990SOL    HW119411   3.369   7.833   5.420 -2.0266 -2.9695  0.2263
 5990SOL    HW219412   3.376   7.929   5.537  2.0930 -2.0899 -0.5852
 5991SOL     OW19413   6.769   3.632   9.530 -0.2249  0.7554 -0.7192
 5991SOL    HW119414   6.797   3.724   9.529 -1.3518  1.1080 -1.1026
 5991SOL    HW219415   6.822   3.592   9.600  2.2894  1.0092 -2.3443
 5992SOL     OW19416   5.386   0.053   6.700  0.6928 -0.2243 -0.4406
 5992SOL    HW119417   5.330   0.130   6.693 -0.3292 -0.8956  0.0735
 5992SOL    HW219418   5.366   0.001   6.621  0.7061 -0.3853 -0.3393
 5993SOL     OW19419   1.439   0.542  12.233  0.1088  0.5526  0.3626
 5993SOL    HW119420   1.350   0.574  12.221  0.9759  2.6367 -1.2195
 5993SOL    HW219421   1.436   0.451  12.205 -1.6264  0.4055  0.9208
 5994SOL     OW19422   0.317   6.179  11.481 -0.5345  0.7723  0.7780
 5994SOL    HW119423   0.244   6.118  11.471  0.8225 -0.5295 -3.2485
 5994SOL    HW219424   0.384   6.129  11.528  0.1815 -0.6418 -1.5858
 5995SOL     OW19425   5.920   6.421   6.311  0.1981  0.7673 -0.1796
 5995SOL    HW119426   5.935   6.497   6.255  1.2898  0.6556 -0.0583
 5995SOL    HW219427   5.988   6.426   6.378 -0.3667  0.2538  0.4439
 5996SOL     OW19428   2.363   5.048   0.545  0.1281 -0.5636  0.3487
 5996SOL    HW119429   2.314   4.970   0.570  0.4696 -1.4920 -1.7079
 5996SOL    HW219430   2.370   5.044   0.450  1.5779  1.1272  0.3094
 5997SOL     OW19431   6.411   5.509   7.876  0.2798 -0.0901  0.0972
 5997SOL    HW119432   6.330   5.502   7.824  0.1764 -1.5160  0.4062
 5997SOL    HW219433   6.469   5.562   7.822 -0.9173  1.1697 -0.0365
 5998SOL     OW19434   0.368   6.586   3.014  0.1694  0.1334 -0.3083
 5998SOL    HW119435   0.442   6.531   2.988  1.2064  0.4704  1.6775
 5998SOL    HW219436   0.341   6.630   2.934  1.7880 -0.4188 -1.2067
 5999SOL     OW19437   4.464   3.048   8.328 -0.1386  0.5014 -0.1078
 5999SOL    HW119438   4.503   3.133   8.305 -0.8264  0.6580 -0.7176
 5999SOL    HW219439   4.372   3.058   8.307 -0.3315 -0.2077  0.3882
 6000SOL     OW19440   6.634   1.024  11.673  0.6436 -0.5973  0.0146
 6000SOL    HW119441   6.708   1.038  11.614  1.0255  0.0014  0.6180
 6000SOL    HW219442   6.557   1.040  11.619  0.9448 -1.4020 -0.6681
 6001SOL     OW19443   4.160   2.641  10.158  0.1540  0.0424 -0.8074
 6001SOL    HW119444   4.096   2.649  10.087  0.4090 -1.9442 -1.3230
 6001SOL    HW219445   4.245   2.635  10.113  0.3003 -1.3948 -0.3905
 6002SOL     OW19446   4.048   4.390  11.000  0.0281 -0.3817  0.1854
 6002SOL    HW119447   4.107   4.448  10.952  1.0093 -1.4207  0.1062
 6002SOL    HW219448   3.989   4.450  11.048  1.4757  0.6881  0.6907
 6003SOL     OW19449   1.831   4.931   6.300  0.1975  0.0137  0.1832
 6003SOL    HW119450   1.860   4.861   6.359  2.3388  0.5468 -0.1216
 6003SOL    HW219451   1.864   4.904   6.214 -0.6680  0.4647 -0.2961
 6004SOL     OW19452   3.892   5.592  11.408  0.1345  0.4509  0.0231
 6004SOL    HW119453   3.951   5.552  11.472 -0.2996 -0.5311 -0.1724
 6004SOL    HW219454   3.850   5.663  11.455  1.3814  1.0993  0.2009
 6005SOL     OW19455   2.564   0.049   6.232 -0.5796 -0.2129 -0.3661
 6005SOL    HW119456   2.621   0.013   6.164 -1.2796 -1.1484 -0.4779
 6005SOL    HW219457   2.566   0.143   6.218  1.5691 -0.1281  0.1367
 6006SOL     OW19458   6.773   2.088   9.674  0.0175 -0.3416 -0.0928
 6006SOL    HW119459   6.764   2.181   9.651 -0.7256 -0.0874  1.1262
 6006SOL    HW219460   6.841   2.055   9.615 -0.3854  0.7425 -1.2008
 6007SOL     OW19461   0.006   5.244   2.081 -0.3127 -0.2273  0.0862
 6007SOL    HW119462   0.010   5.296   2.001  2.5976  1.6945  1.3394
 6007SOL    HW219463   0.081   5.185   2.076  1.2492  1.3922  2.1906
 6008SOL     OW19464   4.523   7.580   8.973 -0.0269  0.0124  0.4409
 6008SOL    HW119465   4.497   7.540   8.890  0.1959  1.4016 -0.3181
 6008SOL    HW219466   4.608   7.619   8.955 -0.3515  1.0438  1.0784
 6009SOL     OW19467   7.630   2.907   1.316 -0.0782 -0.2157 -0.2470
 6009SOL    HW119468   7.554   2.903   1.374 -0.3926 -0.2837 -0.6547
 6009SOL    HW219469   7.648   2.815   1.294  0.2170 -0.2108 -0.0302
 6010SOL     OW19470   1.953   6.420   1.979  0.5152 -0.3621 -0.1580
 6010SOL    HW119471   1.935   6.487   1.913 -0.7665 -2.5226 -2.1220
 6010SOL    HW219472   1.867   6.381   1.997  1.0776 -0.8238  1.7173
 6011SOL     OW19473   0.482   5.292   7.200  0.2513 -0.0982 -0.2693
 6011SOL    HW119474   0.527   5.261   7.279 -0.1122 -1.5672 -0.6028
 6011SOL    HW219475   0.506   5.384   7.193  2.8791 -0.6997 -0.2091
 6012SOL     OW19476   6.824   7.685   6.694 -0.3272 -0.7698  0.4898
 6012SOL    HW119477   6.779   7.717   6.773 -0.5186 -0.5888  0.3062
 6012SOL    HW219478   6.860   7.600   6.721  0.0117 -0.4968  0.9203
 6013SOL     OW19479   4.505   4.703   9.232 -0.4410 -0.3720  1.2324
 6013SOL    HW119480   4.412   4.712   9.211 -0.2397  0.8073  0.7818
 6013SOL    HW219481   4.526   4.612   9.210 -1.5261 -0.7040  1.5325
 6014SOL     OW19482   7.603   6.248   5.396 -0.3745 -0.0647 -0.1989
 6014SOL    HW119483   7.572   6.232   5.485 -0.4232  1.1567  0.0128
 6014SOL    HW219484   7.652   6.168   5.373 -0.1287 -0.2798  1.0180
 6015SOL     OW19485   3.978   7.908   8.849  0.0275  0.6121 -0.2226
 6015SOL    HW119486   4.038   7.892   8.922 -0.0716  2.3016  0.2880
 6015SOL    HW219487   3.906   7.958   8.887 -0.4701  0.7710 -1.3122
 6016SOL     OW19488   3.011   5.405   3.574 -0.5755 -0.3085  0.0322
 6016SOL    HW119489   2.919   5.425   3.585 -0.0498  1.8263  1.0551
 6016SOL    HW219490   3.045   5.397   3.663  0.2085 -1.1850 -0.3322
 6017SOL     OW19491   1.367   5.763   4.643  0.0198  0.6372  0.5268
 6017SOL    HW119492   1.307   5.792   4.575 -0.3574 -1.5867 -0.1701
 6017SOL    HW219493   1.310   5.734   4.714  0.2350 -1.1562  0.0006
 6018SOL     OW19494   2.666   2.500   9.879 -0.2118 -1.4766  0.4516
 6018SOL    HW119495   2.603   2.482   9.949 -1.3087 -1.4147 -0.4939
 6018SOL    HW219496   2.649   2.433   9.813 -0.0702 -0.7750 -0.3163
 6019SOL     OW19497   1.607   1.735  12.345 -0.1622 -0.3942 -0.1523
 6019SOL    HW119498   1.625   1.700  12.258  0.4247 -1.1264  0.2508
 6019SOL    HW219499   1.535   1.797  12.332  0.9628  0.6951 -1.4034
 6020SOL     OW19500   7.652   1.751   0.779  0.1678 -0.1882  0.3418
 6020SOL    HW119501   7.643   1.691   0.853 -0.7495  0.8211  1.0755
 6020SOL    HW219502   7.569   1.743   0.731 -0.0180  0.5620  0.5181
 6021SOL     OW19503   2.655   5.669   9.506  0.2042  0.1836  0.0398
 6021SOL    HW119504   2.604   5.749   9.497  0.5676  0.1987 -2.9164
 6021SOL    HW219505   2.652   5.629   9.418  0.8329 -2.5492  1.1550
 6022SOL     OW19506   3.527   2.410  10.070 -0.4554  0.0744  0.6690
 6022SOL    HW119507   3.584   2.442  10.001  0.6182  0.0679  1.5264
 6022SOL    HW219508   3.449   2.377  10.024 -0.2666  1.1084 -0.4388
 6023SOL     OW19509   6.789   2.894  10.218 -0.1511  0.1402  0.6612
 6023SOL    HW119510   6.861   2.860  10.271 -0.0523  1.4025  1.3821
 6023SOL    HW219511   6.823   2.976  10.182 -1.9036  1.9606  2.8371
 6024SOL     OW19512   6.551   2.284   2.388 -0.6392 -0.6037 -0.0312
 6024SOL    HW119513   6.551   2.200   2.343  0.4181  0.0219 -1.2481
 6024SOL    HW219514   6.636   2.322   2.370 -1.5433  1.2891 -0.5807
 6025SOL     OW19515   4.622   5.122   4.714 -0.0775  0.3520  0.2636
 6025SOL    HW119516   4.569   5.042   4.721 -0.9625  0.9652  0.8861
 6025SOL    HW219517   4.594   5.175   4.789 -0.2917  1.7051 -0.7422
 6026SOL     OW19518   1.488   4.075   3.621 -0.1650  0.0866 -0.2196
 6026SOL    HW119519   1.541   4.154   3.618  0.1156 -0.0771  0.3727
 6026SOL    HW219520   1.416   4.092   3.560 -0.2186  0.8740  0.0562
 6027SOL     OW19521   7.566   7.248   9.225  0.5065 -0.2611  0.3872
 6027SOL    HW119522   7.545   7.341   9.239  0.8376  0.3066 -2.4096
 6027SOL    HW219523   7.486   7.202   9.249 -0.5680  1.0007 -0.6095
 6028SOL     OW19524   0.287   4.602   3.821  0.4288  0.0315  0.0534
 6028SOL    HW119525   0.273   4.523   3.873 -0.0053  0.7196  1.0115
 6028SOL    HW219526   0.366   4.584   3.770 -0.2353 -1.4133 -0.5176
 6029SOL     OW19527   7.819   5.667   9.136 -0.0383 -0.2017  0.0114
 6029SOL    HW119528   7.752   5.614   9.093 -0.6124  0.1933  0.4005
 6029SOL    HW219529   7.777   5.752   9.149  1.1216  0.6199 -1.3150
 6030SOL     OW19530   2.142   5.573   7.309  0.1100  0.5024 -0.2039
 6030SOL    HW119531   2.056   5.607   7.331  0.9875  1.2678  2.3375
 6030SOL    HW219532   2.182   5.642   7.255 -0.7059  0.2911 -1.1002
 6031SOL     OW19533   1.722   7.385   3.285 -0.3649 -0.3452 -0.1100
 6031SOL    HW119534   1.807   7.418   3.254 -0.3639  0.3631  0.6085
 6031SOL    HW219535   1.672   7.464   3.305 -0.7451 -0.7712  0.6484
 6032SOL     OW19536   1.897   6.524  11.221  0.2560 -0.1404 -0.2386
 6032SOL    HW119537   1.832   6.456  11.207 -0.0479 -0.1495  1.1774
 6032SOL    HW219538   1.850   6.606  11.206 -0.7120 -0.0284  2.7783
 6033SOL     OW19539   4.814   0.227   6.525 -0.1703 -0.1775 -0.0762
 6033SOL    HW119540   4.772   0.268   6.600  1.5429  2.1513 -0.2696
 6033SOL    HW219541   4.762   0.256   6.450 -0.0957  0.0277 -0.0482
 6034SOL     OW19542   5.074   0.705   9.715  0.2330  0.2945 -0.6335
 6034SOL    HW119543   5.056   0.793   9.748 -1.0412  0.0405 -0.5830
 6034SOL    HW219544   5.163   0.709   9.682 -0.1777  1.8965 -1.6299
 6035SOL     OW19545   0.106   2.073   5.191  0.5147  0.1226 -0.0407
 6035SOL    HW119546   0.086   2.112   5.276 -0.2335  0.2529 -0.2671
 6035SOL    HW219547   0.169   2.133   5.150  0.4077  0.3801  0.1724
 6036SOL     OW19548   1.002   7.222   6.223  0.2378  0.4941  0.0564
 6036SOL    HW119549   1.045   7.305   6.242 -0.9762  0.9902  0.7009
 6036SOL    HW219550   0.934   7.243   6.160 -0.8676  0.2268  1.1209
 6037SOL     OW19551   3.891   5.147   6.203  0.2629  0.4021  0.3121
 6037SOL    HW119552   3.930   5.094   6.272  2.7343  0.4552 -0.9232
 6037SOL    HW219553   3.909   5.098   6.122 -1.8971  0.6967 -0.4147
 6038SOL     OW19554   2.791   7.181   8.354  0.4001 -0.9396 -0.5098
 6038SOL    HW119555   2.802   7.131   8.435  1.5759  0.0890 -0.0029
 6038SOL    HW219556   2.711   7.146   8.315  0.9857 -2.9379 -0.0017
 6039SOL     OW19557   1.755   7.314   1.323  0.4449 -0.4073  0.2868
 6039SOL    HW119558   1.845   7.341   1.340  1.0567 -0.3722 -2.5261
 6039SOL    HW219559   1.755   7.219   1.334  1.1204 -0.5379 -0.7368
 6040SOL     OW19560   0.374   4.030   5.748 -0.1871  0.5080 -0.4014
 6040SOL    HW119561   0.291   4.005   5.787 -0.3994  1.0255 -0.5058
 6040SOL    HW219562   0.362   4.122   5.724  0.2233  0.4304 -0.9222
 6041SOL     OW19563   2.645   7.626   4.793 -0.1444  0.5646 -0.6077
 6041SOL    HW119564   2.549   7.634   4.788 -0.1464 -0.2078 -2.2363
 6041SOL    HW219565   2.678   7.710   4.761 -0.2812 -0.2451 -2.9972
 6042SOL     OW19566   3.675   4.119   0.435  0.6478 -0.9763  0.6075
 6042SOL    HW119567   3.694   4.025   0.437 -3.0008 -1.8377  1.6360
 6042SOL    HW219568   3.656   4.138   0.344 -1.7241 -2.0751  0.8080
 6043SOL     OW19569   5.157   2.799   3.391 -0.0749  0.1377 -0.2309
 6043SOL    HW119570   5.073   2.843   3.408 -0.1712 -0.1871  0.1438
 6043SOL    HW219571   5.182   2.761   3.475  1.1269  1.3855  0.0114
 6044SOL     OW19572   3.151   7.509   9.236 -0.1345 -0.0798 -0.2709
 6044SOL    HW119573   3.215   7.459   9.288  0.0679 -0.1404 -0.5789
 6044SOL    HW219574   3.201   7.582   9.200 -0.6821  1.0537  1.1658
 6045SOL     OW19575   4.071   3.967   4.294  0.1035 -0.0664  0.0859
 6045SOL    HW119576   4.009   3.896   4.313 -0.2047 -0.2013 -1.2745
 6045SOL    HW219577   4.042   4.039   4.349 -0.5725 -0.4912  0.3039
 6046SOL     OW19578   4.099   0.505  11.281  0.5335  0.3167 -0.3565
 6046SOL    HW119579   4.048   0.585  11.296  0.3828  0.5333 -1.8555
 6046SOL    HW219580   4.049   0.436  11.323  0.1174  0.8564  0.0487
 6047SOL     OW19581   1.679   0.345   9.386  0.2227 -0.1912 -0.3352
 6047SOL    HW119582   1.739   0.271   9.390  0.3525 -0.0202  1.8444
 6047SOL    HW219583   1.619   0.332   9.459  0.5827  2.0972  0.4618
 6048SOL     OW19584   1.607   1.943   8.575  0.3214 -0.3277 -0.5650
 6048SOL    HW119585   1.699   1.965   8.564  0.1126  2.0852  1.5807
 6048SOL    HW219586   1.602   1.901   8.662 -0.7163  0.7072 -0.0935
 6049SOL     OW19587   4.418   6.141   5.993  0.3257  0.0860  0.4058
 6049SOL    HW119588   4.379   6.178   5.914 -1.6239 -1.8364  0.3590
 6049SOL    HW219589   4.427   6.048   5.974  1.1649 -0.1873  1.9541
 6050SOL     OW19590   5.334   0.017   7.028  0.0655 -0.1558 -0.0688
 6050SOL    HW119591   5.296   0.021   6.941  2.2641 -0.5205 -1.1084
 6050SOL    HW219592   5.371   0.105   7.042 -1.1271  0.2093  0.9319
 6051SOL     OW19593   5.352   4.457   2.193 -0.6916 -0.6500  0.5585
 6051SOL    HW119594   5.428   4.479   2.139  1.0376 -1.4672  2.5224
 6051SOL    HW219595   5.277   4.462   2.132  1.1511 -2.0285 -2.0343
 6052SOL     OW19596   6.867   5.462  11.145  0.1984  0.5914  0.1144
 6052SOL    HW119597   6.776   5.445  11.118 -0.1635  2.8911 -0.2655
 6052SOL    HW219598   6.920   5.432  11.071 -0.3908  1.1382 -0.5371
 6053SOL     OW19599   5.932   0.107   1.222  0.3146  0.6568  0.1499
 6053SOL    HW119600   6.009   0.089   1.275  0.3561  0.3592 -0.0073
 6053SOL    HW219601   5.865   0.135   1.284 -0.0144 -0.8600  0.5164
 6054SOL     OW19602   5.093   4.100  10.116  0.0154 -0.0884 -0.1427
 6054SOL    HW119603   5.116   4.011  10.090  1.9445  0.3154  0.0831
 6054SOL    HW219604   5.037   4.132  10.045  0.4020 -1.0244 -0.8876
 6055SOL     OW19605   2.749   0.023   7.445  0.4866 -0.1856  0.2113
 6055SOL    HW119606   2.696   0.031   7.525 -1.1065  1.8702 -0.9348
 6055SOL    HW219607   2.690  -0.018   7.382  1.1068 -0.1350 -0.4077
 6056SOL     OW19608   6.143   7.418  10.441 -0.3237  0.9142 -0.6234
 6056SOL    HW119609   6.230   7.454  10.459 -0.8338  1.5195  0.7910
 6056SOL    HW219610   6.140   7.336  10.492 -1.0107  1.5388  0.3778
 6057SOL     OW19611   2.805   7.832   8.591  0.1234  0.3702  0.0966
 6057SOL    HW119612   2.845   7.793   8.513  0.7917  0.9953  0.1149
 6057SOL    HW219613   2.724   7.783   8.604  0.0927  0.1470 -0.8887
 6058SOL     OW19614   1.282   1.434   1.292  0.0195  0.5614 -0.0983
 6058SOL    HW119615   1.243   1.352   1.322  1.1918 -0.1987 -0.5532
 6058SOL    HW219616   1.217   1.472   1.233 -0.0952 -0.6074 -0.7513
 6059SOL     OW19617   1.718   4.948   2.862  0.2551 -0.4547 -0.6180
 6059SOL    HW119618   1.679   5.031   2.837 -0.3175 -0.7670 -0.7710
 6059SOL    HW219619   1.664   4.917   2.935  1.1529 -0.1514  0.2076
 6060SOL     OW19620   5.037   6.327  12.196  0.1991  0.2164  0.7680
 6060SOL    HW119621   5.130   6.341  12.180  0.3013 -1.0091  0.1864
 6060SOL    HW219622   5.017   6.243  12.154 -0.9972  0.0789  1.5424
 6061SOL     OW19623   7.542   4.350   9.848 -0.5676 -0.3519  0.2657
 6061SOL    HW119624   7.629   4.344   9.887 -0.2986 -1.2269 -0.4223
 6061SOL    HW219625   7.519   4.443   9.852  0.5330 -0.0700  0.1770
 6062SOL     OW19626   0.023   0.348   0.057  0.1221  0.3645 -0.4334
 6062SOL    HW119627  -0.016   0.413  -0.002 -0.6757  2.0375  1.7875
 6062SOL    HW219628   0.115   0.374   0.063 -0.1769  1.2982  0.3838
 6063SOL     OW19629   4.809   6.373  11.544  0.2898 -0.5251 -0.0355
 6063SOL    HW119630   4.779   6.357  11.455 -0.5811 -2.3207  0.5315
 6063SOL    HW219631   4.731   6.363  11.598  0.8933  0.0644  0.9895
 6064SOL     OW19632   1.399   1.423   1.908  0.7699 -0.4900 -0.0029
 6064SOL    HW119633   1.469   1.473   1.866 -0.6111  2.1184  0.5808
 6064SOL    HW219634   1.438   1.389   1.987  1.8748 -0.6590 -0.6060
 6065SOL     OW19635   5.612   0.444   1.255  0.2720 -0.0166  0.2276
 6065SOL    HW119636   5.654   0.375   1.204 -1.9538 -0.6480 -0.8709
 6065SOL    HW219637   5.520   0.419   1.257 -0.2834  1.9583  1.4381
 6066SOL     OW19638   2.126   2.534   2.595  0.0983  0.3579 -0.5849
 6066SOL    HW119639   2.199   2.502   2.542 -0.7762  0.6959 -2.0331
 6066SOL    HW219640   2.168   2.575   2.671  1.2982 -4.0676  1.4417
 6067SOL     OW19641   0.639   3.976   9.506 -0.0093 -0.2191 -0.4972
 6067SOL    HW119642   0.674   4.021   9.582  1.2841 -1.8016 -0.0960
 6067SOL    HW219643   0.563   3.928   9.539 -0.3031  0.2152 -0.5321
 6068SOL     OW19644   0.107   2.972   5.695 -0.3677 -0.1087  0.0871
 6068SOL    HW119645   0.190   2.962   5.741 -0.8330 -1.0654  0.7586
 6068SOL    HW219646   0.055   3.029   5.752  0.2240  1.4896 -0.9124
 6069SOL     OW19647   1.426   4.735   3.051  0.0151 -0.4712  0.1886
 6069SOL    HW119648   1.459   4.807   3.105  1.8658  0.9088 -2.5465
 6069SOL    HW219649   1.332   4.735   3.067 -0.0622  2.5209  0.4311
 6070SOL     OW19650   3.920   4.176   1.000 -0.0224 -0.3088  0.4419
 6070SOL    HW119651   3.932   4.104   0.937  0.3604  0.4829 -0.4204
 6070SOL    HW219652   3.876   4.245   0.949  1.0287  0.6595  0.7998
 6071SOL     OW19653   6.150   2.606   6.726  0.2855  0.1900 -0.3200
 6071SOL    HW119654   6.212   2.534   6.715  0.5355  0.3784 -0.1657
 6071SOL    HW219655   6.161   2.633   6.817  0.1080  0.3470 -0.3436
 6072SOL     OW19656   0.365   2.915   5.421  0.4022  0.1004  0.3041
 6072SOL    HW119657   0.271   2.917   5.399  1.0376 -1.0848 -3.0473
 6072SOL    HW219658   0.376   2.833   5.469 -0.5847  1.4583  3.0912
 6073SOL     OW19659   4.699   6.171   3.208  0.1611  0.5188 -0.0798
 6073SOL    HW119660   4.652   6.253   3.194  2.1828  1.5663 -1.0706
 6073SOL    HW219661   4.778   6.196   3.255  0.5124 -0.9685  0.1839
 6074SOL     OW19662   4.433   2.868   5.783 -0.0509 -0.1015 -0.1819
 6074SOL    HW119663   4.369   2.847   5.715  0.1649  2.1434 -1.1630
 6074SOL    HW219664   4.381   2.903   5.855 -0.0842 -0.1445 -0.1850
 6075SOL     OW19665   0.422   6.504   4.212 -0.3304  0.8130 -0.6772
 6075SOL    HW119666   0.490   6.446   4.246 -1.0190  1.3697  1.8411
 6075SOL    HW219667   0.468   6.580   4.179  0.3817  0.1914 -1.1477
 6076SOL     OW19668   6.402   6.093   0.336 -0.0061  0.2830  0.4758
 6076SOL    HW119669   6.418   6.005   0.371 -0.0118  0.4601  0.9258
 6076SOL    HW219670   6.484   6.140   0.352  1.4609 -0.7084 -3.1486
 6077SOL     OW19671   3.709   6.425   2.765  0.7020  0.1317 -0.2849
 6077SOL    HW119672   3.666   6.396   2.846  0.5630 -0.2719 -0.5044
 6077SOL    HW219673   3.802   6.408   2.780  0.7648  0.7207  0.0678
 6078SOL     OW19674   3.276   1.124   7.805 -0.0431 -0.6244 -0.2835
 6078SOL    HW119675   3.362   1.162   7.788 -0.5461  0.0179 -1.4953
 6078SOL    HW219676   3.252   1.159   7.891  0.6121 -0.2526 -0.2416
 6079SOL     OW19677   0.283   1.607   6.361  0.1732 -0.0315 -0.1946
 6079SOL    HW119678   0.335   1.600   6.441 -1.0750  0.1021  0.6516
 6079SOL    HW219679   0.240   1.522   6.352  1.1065 -0.4152 -1.3208
 6080SOL     OW19680   4.698   5.346   2.431  0.7709 -0.2781 -0.3410
 6080SOL    HW119681   4.788   5.357   2.463  0.2626  1.3292  0.6913
 6080SOL    HW219682   4.691   5.406   2.357  0.2334  0.5211  0.3337
 6081SOL     OW19683   1.243   6.382   9.830  0.5225  0.3145  0.2571
 6081SOL    HW119684   1.263   6.314   9.894  0.0508 -0.0928 -0.0304
 6081SOL    HW219685   1.238   6.463   9.882  3.8364  0.6427  0.2633
 6082SOL     OW19686   6.297   3.644   5.196 -0.2723  0.4494  0.3035
 6082SOL    HW119687   6.290   3.610   5.285  0.1407 -1.1397 -0.2328
 6082SOL    HW219688   6.276   3.737   5.204  0.3359  0.4711  2.1440
 6083SOL     OW19689   4.773   3.633   8.163 -0.2776  0.6240  0.3750
 6083SOL    HW119690   4.716   3.592   8.097  0.0503 -0.5506  0.7977
 6083SOL    HW219691   4.725   3.624   8.245 -0.8550  2.4245  0.2722
 6084SOL     OW19692   7.916   3.255  11.199  0.0605 -0.3956 -0.1556
 6084SOL    HW119693   7.902   3.164  11.170  0.5049 -1.4471  2.6030
 6084SOL    HW219694   8.010   3.270  11.188  0.2782 -0.8929  0.9025
 6085SOL     OW19695   3.851   4.109   2.144  0.3060 -0.1492  0.5135
 6085SOL    HW119696   3.799   4.101   2.224  0.7559 -1.2124  0.7183
 6085SOL    HW219697   3.931   4.059   2.162  1.8207  2.1067  0.5288
 6086SOL     OW19698   3.270   7.079   3.054 -0.3675 -0.0228 -0.1542
 6086SOL    HW119699   3.257   6.984   3.060  0.6360 -0.1221  0.7622
 6086SOL    HW219700   3.185   7.113   3.025 -0.5650 -1.2455 -1.0864
 6087SOL     OW19701   3.876   2.990   4.224 -0.1028  0.0140  0.6964
 6087SOL    HW119702   3.888   3.043   4.302  0.6006 -1.8390  1.9044
 6087SOL    HW219703   3.835   2.910   4.255 -0.8812 -0.3017 -1.0258
 6088SOL     OW19704   0.457   6.611   5.855  0.2954  0.0022 -0.0506
 6088SOL    HW119705   0.412   6.544   5.805 -1.3348  2.0498 -1.5265
 6088SOL    HW219706   0.497   6.668   5.789  1.2350  0.7409  1.1067
 6089SOL     OW19707   0.770   2.715  11.918 -0.2216  0.1387  0.3756
 6089SOL    HW119708   0.830   2.643  11.936 -0.2004  0.4775  1.8236
 6089SOL    HW219709   0.826   2.787  11.890 -0.0281  0.1762  0.8436
 6090SOL     OW19710   1.813   1.170  11.672 -0.2286 -0.5831  0.5334
 6090SOL    HW119711   1.878   1.194  11.738  0.3115 -1.1314  0.2117
 6090SOL    HW219712   1.733   1.156  11.721 -0.7455  2.4000  0.6927
 6091SOL     OW19713   3.886   1.411   6.268 -0.1383  0.5171  0.1774
 6091SOL    HW119714   3.797   1.380   6.285 -0.3109  1.6174  1.3821
 6091SOL    HW219715   3.925   1.421   6.354  2.1814 -2.6394 -0.3291
 6092SOL     OW19716   5.569   2.144   2.692 -0.2763  0.3116  0.4109
 6092SOL    HW119717   5.596   2.052   2.692  3.4071  1.2479  0.2448
 6092SOL    HW219718   5.512   2.152   2.615 -0.8487 -1.8313  0.5468
 6093SOL     OW19719   7.448   1.212  12.134  0.3601 -0.3510 -0.2685
 6093SOL    HW119720   7.463   1.142  12.198 -0.3474 -0.8986 -0.6881
 6093SOL    HW219721   7.355   1.204  12.112  0.4652  0.2115 -0.9251
 6094SOL     OW19722   0.151   1.102  11.457 -0.0304 -0.4109  0.0344
 6094SOL    HW119723   0.145   1.193  11.486  0.5192  0.0629 -1.2467
 6094SOL    HW219724   0.235   1.071  11.492  0.1222 -0.1867 -0.1256
 6095SOL     OW19725   7.339   3.592  11.371 -0.1077 -0.0864 -0.0188
 6095SOL    HW119726   7.392   3.563  11.296 -2.3287  0.1933 -1.8091
 6095SOL    HW219727   7.399   3.646  11.422  2.2750 -2.3871 -0.0925
 6096SOL     OW19728   2.360   7.332   7.906  0.5830 -0.6392 -0.1113
 6096SOL    HW119729   2.306   7.407   7.934  0.8089 -0.3125 -0.5467
 6096SOL    HW219730   2.427   7.325   7.974 -1.0994 -2.2736  1.5341
 6097SOL     OW19731   0.723   3.833   0.159 -0.0587  0.3653 -0.0892
 6097SOL    HW119732   0.668   3.761   0.189 -1.2358  1.1743 -0.2508
 6097SOL    HW219733   0.804   3.823   0.209 -0.1796 -1.0791 -0.1355
 6098SOL     OW19734   5.009   7.008   1.356  0.5456 -0.1516 -0.2611
 6098SOL    HW119735   4.978   6.935   1.302 -1.7659 -0.8434  1.8075
 6098SOL    HW219736   5.011   6.972   1.445  0.4656  1.9877  0.6571
 6099SOL     OW19737   2.775   4.689   1.111  0.6687  0.2515 -0.7131
 6099SOL    HW119738   2.811   4.621   1.054  0.0848 -0.8014  0.1207
 6099SOL    HW219739   2.690   4.710   1.072 -0.5157 -1.7004  0.6063
 6100SOL     OW19740   1.587   4.208   5.880 -0.0133 -0.1140  0.5522
 6100SOL    HW119741   1.576   4.273   5.810  1.1144 -1.0317 -0.5130
 6100SOL    HW219742   1.508   4.155   5.876 -0.1222  0.0696  0.2214
 6101SOL     OW19743   2.282   4.421   4.887  0.2178 -0.4652 -0.0713
 6101SOL    HW119744   2.290   4.421   4.792  0.8368 -1.8755 -0.0555
 6101SOL    HW219745   2.196   4.460   4.904  0.7709  1.3111 -1.0947
 6102SOL     OW19746   5.311   7.964   7.724 -0.5076  0.1734 -0.0755
 6102SOL    HW119747   5.400   7.997   7.739 -1.2970  1.5082  2.2046
 6102SOL    HW219748   5.317   7.870   7.742  0.4088  0.2866  0.2735
 6103SOL     OW19749   7.687   1.144   7.680  0.1997 -0.3182  0.2576
 6103SOL    HW119750   7.705   1.156   7.587 -0.7654 -2.4615 -0.2651
 6103SOL    HW219751   7.619   1.209   7.700 -0.9508 -1.0519 -1.0508
 6104SOL     OW19752   1.188   3.933   8.136  0.1804 -0.2387  0.6548
 6104SOL    HW119753   1.184   4.019   8.177 -0.3392 -0.1014  0.3229
 6104SOL    HW219754   1.225   3.949   8.049 -0.3096 -0.2826  0.4317
 6105SOL     OW19755   1.917   5.466   6.083  0.7625 -0.1356  0.1728
 6105SOL    HW119756   1.848   5.481   6.018  1.0246  3.1241  0.4912
 6105SOL    HW219757   1.973   5.400   6.043 -0.3011  0.1298 -1.9308
 6106SOL     OW19758   7.319   4.104   1.545 -0.1133 -0.3576 -0.1632
 6106SOL    HW119759   7.342   4.067   1.631  2.2529 -0.3028 -0.6819
 6106SOL    HW219760   7.397   4.088   1.492 -0.5197  1.9440 -1.5480
 6107SOL     OW19761   1.710   7.297   5.780  0.0621  0.0283 -0.0135
 6107SOL    HW119762   1.653   7.373   5.770 -3.0149 -1.8410  1.5643
 6107SOL    HW219763   1.713   7.257   5.693 -3.2339 -1.1117  0.2589
 6108SOL     OW19764   2.971   5.874   3.098 -0.4747 -0.2011 -0.0522
 6108SOL    HW119765   2.924   5.911   3.173  0.8316  0.2295  0.5819
 6108SOL    HW219766   2.991   5.949   3.043 -1.8376 -0.5705 -1.1053
 6109SOL     OW19767   1.538   3.210  11.607  0.3026 -0.1906 -0.0235
 6109SOL    HW119768   1.515   3.182  11.518  0.9333  0.9675 -0.5828
 6109SOL    HW219769   1.454   3.222  11.651 -0.0217 -0.5597 -0.5269
 6110SOL     OW19770   5.979   7.278   1.894 -0.1194 -0.0364  0.6177
 6110SOL    HW119771   6.063   7.280   1.940  1.7415  0.2416 -2.5061
 6110SOL    HW219772   5.931   7.354   1.928  1.2787  0.3491  1.8185
 6111SOL     OW19773   6.843   6.801   8.812 -0.0523  0.3092 -0.1669
 6111SOL    HW119774   6.782   6.787   8.739  0.7319 -1.7109 -0.5027
 6111SOL    HW219775   6.872   6.713   8.836  1.0108  1.0648  1.4773
 6112SOL     OW19776   3.802   1.648   9.353 -0.0808 -0.2444 -0.1015
 6112SOL    HW119777   3.842   1.653   9.440 -0.1816  0.9164 -0.1125
 6112SOL    HW219778   3.753   1.566   9.354  0.2718 -0.4548  0.7810
 6113SOL     OW19779   4.297   4.289   5.780 -0.4936 -0.1319 -0.0214
 6113SOL    HW119780   4.303   4.318   5.689  0.8631 -0.6134 -0.1208
 6113SOL    HW219781   4.354   4.211   5.783 -1.1187 -0.5647  1.0664
 6114SOL     OW19782   5.056   4.688   2.106  0.3213  0.0984 -0.0214
 6114SOL    HW119783   4.982   4.636   2.075  0.1808  0.4926 -0.3668
 6114SOL    HW219784   5.021   4.777   2.113  0.6010  0.1752  0.4048
 6115SOL     OW19785   3.403   0.216   8.920  0.2777 -0.1893  0.0657
 6115SOL    HW119786   3.401   0.280   8.991  1.2264 -1.0450  0.8946
 6115SOL    HW219787   3.443   0.138   8.959 -1.4882 -1.5638 -0.6911
 6116SOL     OW19788   6.171   5.202  10.658  0.8105  0.3431 -0.4474
 6116SOL    HW119789   6.215   5.251  10.728  1.1830  1.4359 -1.4114
 6116SOL    HW219790   6.241   5.151  10.617  0.9797  1.1485 -1.2007
 6117SOL     OW19791   3.690   4.011   6.225  0.4485 -0.2289 -0.2478
 6117SOL    HW119792   3.671   3.987   6.134 -0.4308  0.8216 -0.3598
 6117SOL    HW219793   3.785   4.013   6.230  0.5049 -0.3685 -1.1270
 6118SOL     OW19794   1.555   1.097  10.219 -0.3956  0.4648 -0.2104
 6118SOL    HW119795   1.491   1.073  10.153 -0.4127 -2.8097  0.8065
 6118SOL    HW219796   1.625   1.032  10.211  0.2961  0.8174  2.0266
 6119SOL     OW19797   0.565   0.719   0.871 -0.3393 -0.0111  0.0067
 6119SOL    HW119798   0.630   0.779   0.834 -1.3175  0.6677 -0.6836
 6119SOL    HW219799   0.574   0.730   0.966  1.2023 -0.6684 -0.0437
 6120SOL     OW19800   3.189   5.975   2.336 -0.5141  0.3113 -0.3557
 6120SOL    HW119801   3.241   5.932   2.268 -0.0863 -1.2543  0.8840
 6120SOL    HW219802   3.220   6.065   2.337  0.3670  0.0349 -1.3689
 6121SOL     OW19803   7.642   3.641   9.087 -0.2072  0.1722  0.4339
 6121SOL    HW119804   7.659   3.551   9.115  0.1165 -0.4220 -1.5249
 6121SOL    HW219805   7.692   3.695   9.149  0.1326 -1.0188  1.2323
 6122SOL     OW19806   7.065   0.393   1.624  0.0189 -0.2624 -0.8051
 6122SOL    HW119807   7.103   0.479   1.642  0.3881 -0.3887 -0.9689
 6122SOL    HW219808   6.994   0.410   1.562 -1.3256  0.1898  0.7876
 6123SOL     OW19809   4.646   7.537   9.504 -0.5397 -0.2847 -0.1008
 6123SOL    HW119810   4.694   7.541   9.421  1.5660 -0.1434  1.0353
 6123SOL    HW219811   4.690   7.601   9.560 -2.1691 -0.0854  1.0282
 6124SOL     OW19812   6.011   7.018   4.729 -0.2257  0.4434  0.0908
 6124SOL    HW119813   5.926   7.033   4.769 -0.3285  2.1187 -0.6563
 6124SOL    HW219814   6.068   6.995   4.803 -0.9944  0.7825  0.8091
 6125SOL     OW19815   6.915   5.751   0.510 -0.0412 -0.7765  0.5451
 6125SOL    HW119816   6.887   5.810   0.580 -1.3082 -1.9532  1.0601
 6125SOL    HW219817   6.946   5.673   0.555 -1.9007 -1.9973 -0.1883
 6126SOL     OW19818   4.181   0.311   6.769 -0.1319  0.2450  0.4249
 6126SOL    HW119819   4.260   0.261   6.748  0.6049  0.7425  1.8747
 6126SOL    HW219820   4.159   0.286   6.859 -1.7252  0.0240  0.0063
 6127SOL     OW19821   7.350   7.567   5.621  0.4260  0.1701 -0.6054
 6127SOL    HW119822   7.333   7.594   5.531  1.3036 -2.7164 -1.7637
 6127SOL    HW219823   7.321   7.476   5.625  1.7869 -0.2465  1.5905
 6128SOL     OW19824   6.888   1.252   2.765 -0.1122 -0.2724 -0.4708
 6128SOL    HW119825   6.799   1.279   2.790 -0.8793 -3.1961  0.4366
 6128SOL    HW219826   6.932   1.235   2.849  2.1051  2.9873 -0.7893
 6129SOL     OW19827   6.225   5.074   9.298  0.5649 -0.1592  0.1957
 6129SOL    HW119828   6.202   5.113   9.214 -4.0659 -0.7765  0.9482
 6129SOL    HW219829   6.251   4.984   9.277 -2.4931 -0.9595 -0.5513
 6130SOL     OW19830   1.669   2.851  12.091  0.2498 -0.0977  0.5019
 6130SOL    HW119831   1.687   2.925  12.148 -0.7844 -0.3718  1.2212
 6130SOL    HW219832   1.652   2.890  12.005 -1.7485  0.6834  1.1837
 6131SOL     OW19833   5.776   2.720   4.952 -0.5466  0.3942  0.5556
 6131SOL    HW119834   5.710   2.659   4.921  0.1710 -0.7104  1.1278
 6131SOL    HW219835   5.802   2.769   4.874  0.0901 -1.2230 -0.2947
 6132SOL     OW19836   7.467   0.272   0.831  0.2457 -0.2206 -0.8688
 6132SOL    HW119837   7.559   0.278   0.854 -0.1005  1.0076  0.3680
 6132SOL    HW219838   7.456   0.333   0.758  0.2482  0.4325 -0.3415
 6133SOL     OW19839   6.061   6.957   7.225  0.3752  0.1099  0.4324
 6133SOL    HW119840   6.115   7.011   7.168 -0.9258  1.2159  0.1778
 6133SOL    HW219841   6.042   6.878   7.174  0.6727  0.2927  0.0358
 6134SOL     OW19842   2.806   6.510   8.092 -0.5340 -0.3110 -0.0989
 6134SOL    HW119843   2.787   6.497   8.185 -0.8286  0.3294 -0.0626
 6134SOL    HW219844   2.834   6.424   8.061 -3.7223 -1.4531 -0.2195
 6135SOL     OW19845   1.086   1.642   2.872  0.4263 -0.3392  0.3534
 6135SOL    HW119846   1.040   1.588   2.936 -0.1692  1.8570  1.9093
 6135SOL    HW219847   1.017   1.673   2.813  0.3273  0.5910  0.9240
 6136SOL     OW19848   5.453   7.207   0.969  0.1522 -0.0312  0.5513
 6136SOL    HW119849   5.544   7.234   0.957  0.1980 -0.4508 -0.1310
 6136SOL    HW219850   5.425   7.251   1.049  1.3821 -0.9985  1.5515
 6137SOL     OW19851   5.982   5.189   2.325 -0.4504 -0.2001  0.4387
 6137SOL    HW119852   5.947   5.234   2.248 -1.2232 -0.5871  0.5579
 6137SOL    HW219853   6.031   5.258   2.372 -0.4317  0.1677 -0.1074
 6138SOL     OW19854   3.069   4.208   1.517  0.5428 -0.2374  0.1149
 6138SOL    HW119855   3.044   4.124   1.556 -0.5130 -0.0770 -0.2023
 6138SOL    HW219856   2.990   4.261   1.521  1.4653  1.1183  1.2301
 6139SOL     OW19857   7.343   1.063   8.762 -0.0443 -0.3470  0.8518
 6139SOL    HW119858   7.390   0.982   8.741 -1.8162 -0.8953 -1.4813
 6139SOL    HW219859   7.253   1.035   8.777 -0.6997  1.1647 -0.0324
 6140SOL     OW19860   5.684   1.081  10.680 -0.5337 -0.1330 -0.5918
 6140SOL    HW119861   5.773   1.090  10.646  0.0012  0.4037  0.8888
 6140SOL    HW219862   5.634   1.149  10.635  0.2749  0.8942  0.0243
 6141SOL     OW19863   3.222   0.625   5.560 -0.5844 -0.2668 -0.0019
 6141SOL    HW119864   3.240   0.537   5.526  4.5314  0.3983  0.1935
 6141SOL    HW219865   3.220   0.614   5.655 -1.1487 -0.2681 -0.0067
 6142SOL     OW19866   1.477   0.365   2.720 -0.7156  0.3764  0.0449
 6142SOL    HW119867   1.468   0.408   2.805 -1.7025 -0.7301  0.5311
 6142SOL    HW219868   1.413   0.294   2.722 -0.7640  0.3339 -1.6379
 6143SOL     OW19869   7.139   7.257   3.142 -0.9665  0.3484 -0.2394
 6143SOL    HW119870   7.210   7.246   3.079 -1.3812  1.5998 -0.9543
 6143SOL    HW219871   7.119   7.168   3.171  1.3002 -0.0020  0.4692
 6144SOL     OW19872   5.730   7.615  11.203 -0.0542  0.0563  0.2653
 6144SOL    HW119873   5.727   7.708  11.222  0.5377 -0.0922  1.1981
 6144SOL    HW219874   5.639   7.591  11.182  0.0103  1.0676 -1.2719
 6145SOL     OW19875   4.006   3.660   4.827 -0.0250  0.0305 -0.4869
 6145SOL    HW119876   4.031   3.591   4.888  0.7908  0.5877 -0.1647
 6145SOL    HW219877   3.933   3.704   4.870 -0.8451 -0.9095 -0.9065
 6146SOL     OW19878   4.189   2.540   2.075  0.1408 -0.7662 -0.1822
 6146SOL    HW119879   4.192   2.577   2.163 -0.1611  0.4753 -0.6752
 6146SOL    HW219880   4.190   2.445   2.089  1.5505 -0.6061  1.0963
 6147SOL     OW19881   5.612   4.335   6.745 -0.3640  0.2238  0.5301
 6147SOL    HW119882   5.544   4.286   6.699 -0.3445 -1.0992  1.8474
 6147SOL    HW219883   5.567   4.376   6.819 -0.0371  0.7250  0.4596
 6148SOL     OW19884   2.749   2.961   1.483 -0.3937  0.3109  0.3555
 6148SOL    HW119885   2.728   3.036   1.428  0.5309  0.4353  0.1512
 6148SOL    HW219886   2.682   2.961   1.550 -1.0819  0.6245 -0.3189
 6149SOL     OW19887   6.791   1.352   8.634  0.0144  0.2092 -0.7906
 6149SOL    HW119888   6.869   1.345   8.579 -0.2998 -0.2726 -1.1812
 6149SOL    HW219889   6.791   1.443   8.663  1.3706 -0.0825  0.1943
 6150SOL     OW19890   1.930   2.002   2.506 -0.0011  0.6023 -0.8474
 6150SOL    HW119891   2.001   1.984   2.567 -0.0267  0.3079 -0.9039
 6150SOL    HW219892   1.935   2.097   2.491 -0.0528  0.6908 -0.3232
 6151SOL     OW19893   6.506   7.532  11.450  0.2181  0.1903  0.0386
 6151SOL    HW119894   6.470   7.620  11.450 -3.0577 -1.0150  0.8685
 6151SOL    HW219895   6.470   7.491  11.529  3.3275 -1.3434  0.8533
 6152SOL     OW19896   6.338   6.599   5.402  0.4863  0.2097  0.0140
 6152SOL    HW119897   6.292   6.612   5.319  0.9949  0.2743 -0.2608
 6152SOL    HW219898   6.335   6.505   5.417  0.6411  0.1668 -0.2218
 6153SOL     OW19899   4.067   0.452   3.364 -0.0590 -0.0473 -0.3483
 6153SOL    HW119900   4.130   0.458   3.292  1.9472 -3.0991  0.9547
 6153SOL    HW219901   3.990   0.409   3.325  0.3086 -0.0695 -1.0683
 6154SOL     OW19902   6.424   7.417   5.620 -0.0692 -0.0020  0.3765
 6154SOL    HW119903   6.456   7.330   5.596 -1.9559 -0.5475 -0.3305
 6154SOL    HW219904   6.388   7.452   5.538 -0.8175  0.7678  1.0226
 6155SOL     OW19905   6.953   3.858   6.960  0.3862  0.1630 -0.2420
 6155SOL    HW119906   6.863   3.876   6.933  0.2248 -0.8934 -0.4400
 6155SOL    HW219907   6.944   3.803   7.038  0.8599 -0.1942 -0.4345
 6156SOL     OW19908   7.592   6.745   6.054 -0.6763 -0.0618  0.1641
 6156SOL    HW119909   7.632   6.765   5.969 -2.5803 -1.1990 -1.0633
 6156SOL    HW219910   7.658   6.694   6.100 -0.6106 -1.8650 -1.7868
 6157SOL     OW19911   4.215   4.924   5.548  0.1258 -0.4665 -0.3154
 6157SOL    HW119912   4.153   4.883   5.488  0.4654 -1.4042 -0.0558
 6157SOL    HW219913   4.301   4.898   5.515  0.4137  1.1176 -0.8822
 6158SOL     OW19914   0.210   2.307  10.308 -0.1319 -0.0760  0.3148
 6158SOL    HW119915   0.263   2.249  10.254  1.8800  0.3993  1.6583
 6158SOL    HW219916   0.144   2.249  10.347  0.4164 -1.0223 -0.1147
 6159SOL     OW19917   4.874   7.034   5.404  0.0755  0.0505 -0.1598
 6159SOL    HW119918   4.960   7.058   5.440 -0.3769  0.5586  0.5989
 6159SOL    HW219919   4.811   7.064   5.469 -0.6714 -0.5893 -0.5684
 6160SOL     OW19920   6.107   1.270   4.382  0.3843 -0.4998  0.3511
 6160SOL    HW119921   6.025   1.220   4.373 -0.7183  1.2594  0.1872
 6160SOL    HW219922   6.174   1.203   4.396 -0.9402 -2.0628 -0.3923
 6161SOL     OW19923   2.162   5.975   8.934 -0.3381 -0.3692 -0.2637
 6161SOL    HW119924   2.096   6.044   8.931  1.9614  1.9565 -1.4344
 6161SOL    HW219925   2.203   5.985   9.020 -0.0584 -0.3456 -0.4001
 6162SOL     OW19926   4.761   6.775   0.079 -0.2616 -0.1746 -0.2450
 6162SOL    HW119927   4.783   6.766   0.172 -1.3564  1.0151  0.1563
 6162SOL    HW219928   4.749   6.685   0.048  1.0788 -0.6362  0.5049
 6163SOL     OW19929   4.445   5.279   7.523 -0.1885 -0.2884 -0.5467
 6163SOL    HW119930   4.352   5.259   7.534 -0.8013  1.1822 -2.5520
 6163SOL    HW219931   4.469   5.238   7.440  0.7553  0.0019 -0.4304
 6164SOL     OW19932   3.600   6.102  12.444 -0.0578  0.3483  0.1342
 6164SOL    HW119933   3.591   6.106  12.348 -0.1468 -0.5914  0.0915
 6164SOL    HW219934   3.670   6.038  12.458 -0.6919 -0.2287  0.7220
 6165SOL     OW19935   6.789   2.345   4.317  0.0612  0.0118 -0.3854
 6165SOL    HW119936   6.880   2.372   4.311  0.0073  0.5686  1.0173
 6165SOL    HW219937   6.757   2.350   4.226  1.4181 -0.2615 -0.9051
 6166SOL     OW19938   4.616   2.422   4.153 -0.3284 -0.1563 -0.4517
 6166SOL    HW119939   4.711   2.425   4.167 -0.2787  1.1674 -0.9494
 6166SOL    HW219940   4.599   2.331   4.129  0.6880 -0.6054  0.4309
 6167SOL     OW19941   0.367   3.977   1.231 -0.2563 -0.5339  0.0571
 6167SOL    HW119942   0.313   3.904   1.260 -0.1868 -1.2058 -1.4125
 6167SOL    HW219943   0.442   3.936   1.188  0.8040  0.3980  0.9574
 6168SOL     OW19944   0.862   6.068   1.276 -0.3342 -0.1336 -0.4391
 6168SOL    HW119945   0.950   6.095   1.300 -0.7891 -0.1870  1.5174
 6168SOL    HW219946   0.805   6.135   1.315 -1.2071 -0.8830 -0.3758
 6169SOL     OW19947   0.404   3.284   8.688 -0.3720 -0.6424 -0.1479
 6169SOL    HW119948   0.316   3.260   8.657 -0.7334 -0.2719  0.5500
 6169SOL    HW219949   0.449   3.317   8.611 -1.4965  0.9563 -0.1585
 6170SOL     OW19950   5.755   1.554   8.489  0.8869  0.1960  0.1028
 6170SOL    HW119951   5.739   1.462   8.468  1.2916  0.4897 -1.6817
 6170SOL    HW219952   5.679   1.580   8.542 -0.4937 -0.5404 -1.4153
 6171SOL     OW19953   6.033   0.520   6.256 -0.4968  0.4582 -0.0506
 6171SOL    HW119954   5.970   0.576   6.210 -1.2968 -0.1003  0.3469
 6171SOL    HW219955   6.113   0.572   6.258 -0.3630  0.4600 -2.2361
 6172SOL     OW19956   0.681   1.573   4.570 -0.7331  0.2280 -0.4652
 6172SOL    HW119957   0.724   1.638   4.626 -0.3603  0.7222 -1.2952
 6172SOL    HW219958   0.639   1.513   4.631  1.9404 -0.8614  0.4448
 6173SOL     OW19959   5.150   6.611   3.721  0.3824  0.5194 -0.1183
 6173SOL    HW119960   5.104   6.529   3.708 -2.4585  2.0995 -0.9135
 6173SOL    HW219961   5.220   6.590   3.783 -0.6287 -2.3320  0.1932
 6174SOL     OW19962   7.659   1.773   7.585 -0.0746 -0.2532 -0.2828
 6174SOL    HW119963   7.754   1.775   7.575  0.0245 -1.5990  0.2304
 6174SOL    HW219964   7.643   1.819   7.667  0.2187 -0.8127  0.0956
 6175SOL     OW19965   0.211   2.582   0.242  0.3222 -0.4365  0.3193
 6175SOL    HW119966   0.286   2.542   0.198 -0.0110 -1.9136  1.0226
 6175SOL    HW219967   0.249   2.655   0.292  1.1335 -0.5380 -0.1277
 6176SOL     OW19968   6.737   0.124   3.233  0.4075  0.2923 -0.4625
 6176SOL    HW119969   6.707   0.102   3.321  1.8477  0.1821  0.0210
 6176SOL    HW219970   6.791   0.050   3.206  0.7728  0.7585 -1.0443
 6177SOL     OW19971   3.655   2.372   6.001  0.0158  0.0452 -0.3116
 6177SOL    HW119972   3.579   2.323   6.034  0.7166 -0.7134  0.2459
 6177SOL    HW219973   3.630   2.399   5.913 -1.0470  0.1502  0.0089
 6178SOL     OW19974   1.630   0.918   8.217  0.3510  1.1260  0.1220
 6178SOL    HW119975   1.612   0.999   8.266  1.6431  1.0706  0.7267
 6178SOL    HW219976   1.711   0.937   8.168 -0.2124  0.7362 -0.9962
 6179SOL     OW19977   3.883   1.620  10.505  0.4596  0.2694  0.3820
 6179SOL    HW119978   3.788   1.607  10.509  0.1912  1.2814 -1.5067
 6179SOL    HW219979   3.898   1.705  10.546  0.3249  0.8232 -0.6725
 6180SOL     OW19980   3.205   0.190   2.724  0.0040 -0.6815  0.0437
 6180SOL    HW119981   3.284   0.137   2.720  0.3622 -0.1192 -0.7102
 6180SOL    HW219982   3.219   0.249   2.798  0.2539 -0.6443 -0.0336
 6181SOL     OW19983   4.699   0.765   2.953 -0.4952 -0.2937  0.2414
 6181SOL    HW119984   4.749   0.792   3.030  0.1148  2.3778 -0.9553
 6181SOL    HW219985   4.612   0.743   2.987 -0.8394  2.6664  1.5788
 6182SOL     OW19986   2.258   5.747  11.576 -0.6307  0.0478 -0.0651
 6182SOL    HW119987   2.191   5.700  11.527 -1.0929 -0.2440  0.8328
 6182SOL    HW219988   2.245   5.839  11.553 -1.6114  0.0407  0.4287
 6183SOL     OW19989   3.532   2.314   1.644  0.2055  0.0191  0.1128
 6183SOL    HW119990   3.618   2.319   1.602  0.6949 -2.2219  0.6990
 6183SOL    HW219991   3.470   2.337   1.575  1.2249  1.7008 -0.3178
 6184SOL     OW19992   6.456   0.666   3.358  0.1422 -0.0635 -0.0515
 6184SOL    HW119993   6.456   0.674   3.453 -1.1076  0.0856 -0.0590
 6184SOL    HW219994   6.384   0.721   3.328  1.8238  1.6383 -1.2685
 6185SOL     OW19995   6.179   0.740  10.121 -0.3132  0.2502 -0.3293
 6185SOL    HW119996   6.153   0.653  10.091  1.8731 -0.2511 -0.9973
 6185SOL    HW219997   6.174   0.735  10.216  1.0743 -1.1208 -0.2807
 6186SOL     OW19998   3.921   6.254  10.106  0.0616  0.5032  0.1801
 6186SOL    HW119999   3.826   6.256  10.110 -0.0212  0.1821 -1.0467
 6186SOL    HW220000   3.948   6.339  10.140 -0.5509 -0.0603  2.1836
 6187SOL     OW20001   5.831   1.717   8.829 -0.0430  0.5224  0.0608
 6187SOL    HW120002   5.918   1.736   8.794 -0.2230  3.0041  0.7447
 6187SOL    HW220003   5.830   1.623   8.844  1.6377  0.0674 -2.2409
 6188SOL     OW20004   5.232   1.863   0.126  0.4908  0.7031  0.1977
 6188SOL    HW120005   5.201   1.810   0.200 -0.2114  1.4800  0.4773
 6188SOL    HW220006   5.328   1.854   0.129  0.4563  0.5013  1.0421
 6189SOL     OW20007   1.340   3.163   3.365  0.4436  0.3702  0.6124
 6189SOL    HW120008   1.420   3.206   3.333  0.3114  0.7927  0.8374
 6189SOL    HW220009   1.347   3.073   3.335  0.6121  0.6129 -0.0927
 6190SOL     OW20010   3.078   3.210  11.586  0.0087 -0.3805 -0.7551
 6190SOL    HW120011   3.153   3.212  11.646  0.8223  1.0184 -1.7470
 6190SOL    HW220012   3.107   3.261  11.510 -2.2632  1.0204 -0.7804
 6191SOL     OW20013   6.778   5.701   1.449 -0.3404 -0.1026 -0.4732
 6191SOL    HW120014   6.738   5.623   1.486 -1.6908 -0.2366 -2.0944
 6191SOL    HW220015   6.809   5.750   1.525 -4.4384  0.4840  1.1093
 6192SOL     OW20016   7.009   6.389   0.696  0.0350  0.2470  0.4642
 6192SOL    HW120017   6.915   6.372   0.691  0.0900 -0.1957  0.9061
 6192SOL    HW220018   7.046   6.343   0.621 -0.3380  2.2516 -1.0469
 6193SOL     OW20019   0.270   0.070   0.536  0.0808  0.4119  0.2389
 6193SOL    HW120020   0.254   0.007   0.466 -1.4166 -0.7486  1.5436
 6193SOL    HW220021   0.277   0.154   0.492  0.8763 -0.4858 -1.4418
 6194SOL     OW20022   1.991   5.824   3.233 -0.5685  0.8299 -0.0326
 6194SOL    HW120023   1.976   5.740   3.277 -0.1512  0.4527 -0.6103
 6194SOL    HW220024   1.951   5.813   3.147  0.6411  0.7543 -0.5982
 6195SOL     OW20025   7.062   5.394   8.194  0.0538  0.2883  0.4780
 6195SOL    HW120026   7.065   5.489   8.180  3.2128  0.4604  1.5940
 6195SOL    HW220027   7.076   5.357   8.107  1.2066  0.9480  0.3542
 6196SOL     OW20028   6.049   6.458   4.778 -0.4060 -0.1313  0.0868
 6196SOL    HW120029   6.023   6.475   4.687 -1.4635 -1.1660  0.1743
 6196SOL    HW220030   5.979   6.498   4.830 -0.3144 -0.4005  0.4159
 6197SOL     OW20031   4.506   4.261   1.257 -0.1186  0.3482 -0.4094
 6197SOL    HW120032   4.476   4.171   1.264 -0.4172  0.1921 -2.7798
 6197SOL    HW220033   4.569   4.260   1.185 -0.5200  2.0980 -0.8516
 6198SOL     OW20034   6.421   7.025   0.101 -0.0601 -0.0657  0.1945
 6198SOL    HW120035   6.468   7.103   0.072  1.2872 -1.3971 -1.4077
 6198SOL    HW220036   6.464   7.000   0.182  0.2558  0.2230  0.1188
 6199SOL     OW20037   4.613   5.634   3.243 -0.0338  0.3747  0.2347
 6199SOL    HW120038   4.644   5.716   3.205  0.5981 -0.3269 -0.8171
 6199SOL    HW220039   4.671   5.618   3.317 -0.2540  0.9363  0.5369
 6200SOL     OW20040   3.725   1.921   7.540 -0.2384 -0.2151  0.4404
 6200SOL    HW120041   3.663   1.993   7.552 -0.7988 -0.6691  0.3259
 6200SOL    HW220042   3.692   1.851   7.597  0.1215 -0.4910  0.3153
 6201SOL     OW20043   4.361   5.281  11.345  0.8653  0.0431 -0.8323
 6201SOL    HW120044   4.397   5.194  11.363  3.3268  1.1466 -0.0547
 6201SOL    HW220045   4.381   5.296  11.253  1.4751  0.2278 -0.6739
 6202SOL     OW20046   4.805   4.420   1.580  0.4670  0.0483  0.4414
 6202SOL    HW120047   4.828   4.408   1.488  0.8555  0.4934  0.4730
 6202SOL    HW220048   4.738   4.354   1.598  0.0170  0.2992 -0.2938
 6203SOL     OW20049   6.216   6.835   4.676  0.1936  0.1927 -0.2472
 6203SOL    HW120050   6.124   6.853   4.656  0.1529 -0.3609 -0.5816
 6203SOL    HW220051   6.231   6.877   4.761  0.0028  1.4522 -0.8198
 6204SOL     OW20052   7.899   0.617   1.227  0.1785  0.0039  0.3413
 6204SOL    HW120053   7.950   0.538   1.244  1.2903  1.3122  4.0803
 6204SOL    HW220054   7.942   0.658   1.151  3.7119  0.1446  2.2291
 6205SOL     OW20055   2.784   1.294   4.722  0.5888 -0.3057  0.3675
 6205SOL    HW120056   2.697   1.254   4.729  0.6502 -0.2457  1.5839
 6205SOL    HW220057   2.831   1.263   4.799  1.1900  0.7784  0.4571
 6206SOL     OW20058   0.876   3.567  12.146 -0.3459 -0.3507 -0.6765
 6206SOL    HW120059   0.939   3.616  12.198  2.6471 -1.1977 -3.2209
 6206SOL    HW220060   0.844   3.629  12.081 -2.3109  0.0701  0.5791
 6207SOL     OW20061   4.766   2.725   4.788  0.0409 -0.2071  0.6664
 6207SOL    HW120062   4.849   2.693   4.823  1.5556  0.8325 -1.7395
 6207SOL    HW220063   4.761   2.816   4.817  0.2053  0.0005  0.0530
 6208SOL     OW20064   3.981   7.030   0.676 -0.6491  0.1673 -0.1311
 6208SOL    HW120065   4.061   7.057   0.632  0.0281  0.9590  1.4795
 6208SOL    HW220066   4.004   6.947   0.718 -0.8985  0.0315 -0.2634
 6209SOL     OW20067   0.033   6.811  10.065 -0.3137  0.4800  0.2439
 6209SOL    HW120068   0.046   6.858  10.148 -0.1241  1.0491 -0.1013
 6209SOL    HW220069  -0.056   6.777  10.071 -0.4819  0.9455  0.4718
 6210SOL     OW20070   7.310   7.563  10.596  0.4211  0.2882 -0.7784
 6210SOL    HW120071   7.335   7.472  10.579 -0.4461 -0.0942 -0.1198
 6210SOL    HW220072   7.269   7.560  10.683  1.1499  1.4601 -0.3781
 6211SOL     OW20073   5.428   4.191  11.872  0.1841 -0.1859  0.2432
 6211SOL    HW120074   5.500   4.145  11.915 -1.8849 -1.9364  2.0237
 6211SOL    HW220075   5.460   4.209  11.784  3.0438 -0.2048  1.1896
 6212SOL     OW20076   7.110   0.318   3.108  0.2749  0.0269  0.1124
 6212SOL    HW120077   7.161   0.387   3.065  0.0514 -0.9519 -1.8329
 6212SOL    HW220078   7.102   0.249   3.042 -2.6558 -0.3206  0.6911
 6213SOL     OW20079   0.671   4.972   4.533  0.8513  0.0272  0.6987
 6213SOL    HW120080   0.660   4.975   4.628 -0.8682 -0.1366  0.5399
 6213SOL    HW220081   0.626   5.050   4.501 -1.4565 -1.5410 -0.1503
 6214SOL     OW20082   1.389   5.728   1.104 -0.0692 -0.1793 -0.1236
 6214SOL    HW120083   1.467   5.684   1.141 -0.1681  0.2728  0.6525
 6214SOL    HW220084   1.420   5.766   1.022  0.6779  0.4182  0.4138
 6215SOL     OW20085   0.910   1.864   9.021 -0.4465 -0.8229 -0.5960
 6215SOL    HW120086   0.993   1.901   8.991 -1.2622  1.2322 -0.4843
 6215SOL    HW220087   0.859   1.851   8.942 -0.7331 -0.1634 -0.5325
 6216SOL     OW20088   5.950   6.399   5.306  0.3618  0.0210 -0.2526
 6216SOL    HW120089   5.939   6.489   5.277  0.1263 -0.2900 -1.1530
 6216SOL    HW220090   5.897   6.347   5.246  0.6475 -0.7394  0.1334
 6217SOL     OW20091   0.816   2.987   5.987  0.3067  0.3214 -0.4149
 6217SOL    HW120092   0.881   3.006   5.919 -0.2719  1.7585 -0.6050
 6217SOL    HW220093   0.737   3.031   5.957 -1.2451 -2.6081 -0.9278
 6218SOL     OW20094   5.232   3.850   8.853  0.0852  0.6060  0.2339
 6218SOL    HW120095   5.253   3.943   8.865  0.8277  0.2547  2.0016
 6218SOL    HW220096   5.161   3.834   8.915 -1.9112  0.5525 -1.9387
 6219SOL     OW20097   5.352   6.868   7.242 -0.1482 -0.4854  0.9170
 6219SOL    HW120098   5.416   6.810   7.282  0.8287 -0.6938 -0.8488
 6219SOL    HW220099   5.380   6.956   7.268  1.3163 -0.5231 -0.3736
 6220SOL     OW20100   3.453   7.151   3.998  0.5172  0.1406  0.2045
 6220SOL    HW120101   3.546   7.146   4.019  0.4570  0.3716  0.5335
 6220SOL    HW220102   3.409   7.142   4.082  0.2909  1.7424  0.2900
 6221SOL     OW20103   4.892   5.052   9.913  0.0994  0.0359 -0.3191
 6221SOL    HW120104   4.898   5.097   9.997  1.1230  1.2739 -1.0253
 6221SOL    HW220105   4.975   5.007   9.904 -0.3878 -0.9046 -0.2519
 6222SOL     OW20106   4.745   6.686   3.166  0.4731 -0.3078  0.2719
 6222SOL    HW120107   4.780   6.768   3.131  0.9857  0.2278  1.9052
 6222SOL    HW220108   4.650   6.695   3.159  0.5088  0.5982  0.7242
 6223SOL     OW20109   2.144   0.252   0.466 -0.8590 -0.4916  0.0936
 6223SOL    HW120110   2.199   0.229   0.541  0.9153  0.0106 -0.9853
 6223SOL    HW220111   2.055   0.250   0.500 -0.1673 -0.9642  2.0245
 6224SOL     OW20112   5.153   0.023   0.485  0.4098  0.2207  0.6907
 6224SOL    HW120113   5.193  -0.019   0.561  0.8884  0.3487  0.5094
 6224SOL    HW220114   5.111  -0.049   0.437  1.0871 -0.0290  0.4681
 6225SOL     OW20115   4.254   3.942  11.520  0.1526 -0.3478 -0.3538
 6225SOL    HW120116   4.180   3.943  11.458  0.2246 -0.5613 -0.4425
 6225SOL    HW220117   4.325   3.983  11.471  0.5357 -1.5221 -0.8201
 6226SOL     OW20118   2.535   0.084   4.829 -0.1184 -0.3706 -0.0533
 6226SOL    HW120119   2.586   0.163   4.812 -0.9674  0.1756 -0.0899
 6226SOL    HW220120   2.448   0.116   4.852 -0.6789 -1.3143 -0.7956
 6227SOL     OW20121   0.526   7.382   2.274 -0.0668 -0.1629  0.1237
 6227SOL    HW120122   0.467   7.313   2.305 -1.9042 -0.2131 -3.0619
 6227SOL    HW220123   0.604   7.373   2.328  0.0458 -5.1554 -0.4498
 6228SOL     OW20124   0.908   0.675   1.143 -0.3760  0.0961 -0.3127
 6228SOL    HW120125   0.991   0.698   1.184 -0.1599 -1.3775  0.1235
 6228SOL    HW220126   0.918   0.701   1.051  0.4119  0.2768 -0.1757
 6229SOL     OW20127   0.475   2.069  10.795 -0.6401 -0.2492 -0.3810
 6229SOL    HW120128   0.561   2.049  10.834  0.4907  2.4752 -1.2029
 6229SOL    HW220129   0.468   2.010  10.720 -0.3375 -1.7358  0.7182
 6230SOL     OW20130   1.827   1.689   8.783 -0.1451  0.6423  0.1426
 6230SOL    HW120131   1.805   1.605   8.743 -0.3114  0.4699  0.6027
 6230SOL    HW220132   1.884   1.732   8.718 -0.3698  0.3391 -0.2564
 6231SOL     OW20133   4.497   4.569   1.711  1.0389 -0.2481  0.0640
 6231SOL    HW120134   4.529   4.579   1.800  1.3306 -3.2711  0.3792
 6231SOL    HW220135   4.534   4.486   1.681 -2.5189 -1.5347 -1.3053
 6232SOL     OW20136   4.196   3.928  11.173 -0.3534 -0.1959  0.4671
 6232SOL    HW120137   4.202   4.015  11.133 -0.5729 -0.8650 -1.0523
 6232SOL    HW220138   4.131   3.939  11.242 -0.2113  0.8972  0.4564
 6233SOL     OW20139   4.316   5.105  12.240 -0.3743 -0.1859 -0.1344
 6233SOL    HW120140   4.280   5.190  12.212 -0.0142  0.0149  0.0038
 6233SOL    HW220141   4.239   5.053  12.265 -0.5057  0.6065  1.1984
 6234SOL     OW20142   0.233   4.713   5.021  0.3426  0.0225  0.1253
 6234SOL    HW120143   0.314   4.760   5.000 -0.9520  1.2127 -2.7899
 6234SOL    HW220144   0.254   4.621   5.005  1.6987  0.0095  1.6909
 6235SOL     OW20145   0.048   2.419  10.594 -0.1057  0.0784 -0.0260
 6235SOL    HW120146  -0.018   2.419  10.663  0.7904  0.7503  0.8432
 6235SOL    HW220147   0.124   2.375  10.632  0.7340  1.2981 -0.2325
 6236SOL     OW20148   0.597   4.400   7.980 -0.0504  0.2464  0.4795
 6236SOL    HW120149   0.609   4.440   8.066  2.0763  2.5096 -0.7377
 6236SOL    HW220150   0.648   4.318   7.985 -0.9174 -0.2503  1.6893
 6237SOL     OW20151   6.526   3.569   1.788  0.4180 -0.5073 -0.0039
 6237SOL    HW120152   6.582   3.509   1.739  0.5288 -2.0103  1.8130
 6237SOL    HW220153   6.439   3.529   1.784 -0.2500  0.9956 -1.5064
 6238SOL     OW20154   3.713   0.271   0.265  0.0819  0.1115 -0.3844
 6238SOL    HW120155   3.626   0.310   0.263  0.6700  1.4423 -0.5609
 6238SOL    HW220156   3.769   0.336   0.309  0.7574 -1.2312  0.8605
 6239SOL     OW20157   0.911   6.293   0.227 -0.5788 -0.7715  0.1552
 6239SOL    HW120158   0.854   6.292   0.303 -0.9110 -1.5257 -0.0946
 6239SOL    HW220159   0.883   6.218   0.175  0.2178 -0.7758 -0.2837
 6240SOL     OW20160   4.580   4.239   6.004  0.0356  0.2059 -0.4168
 6240SOL    HW120161   4.600   4.332   5.993 -1.8991  0.4206 -3.2064
 6240SOL    HW220162   4.577   4.205   5.914 -1.4888 -2.0175  0.3989
 6241SOL     OW20163   1.945   2.460   9.083  0.6482  0.1159  0.0916
 6241SOL    HW120164   1.966   2.403   9.009  0.2308  0.8269 -0.5915
 6241SOL    HW220165   2.030   2.486   9.119  0.8412 -1.0305  0.4986
 6242SOL     OW20166   0.956   4.582   2.105 -0.4862 -0.3390  0.3418
 6242SOL    HW120167   0.946   4.536   2.188 -0.9748  0.5814  0.8075
 6242SOL    HW220168   0.937   4.673   2.126 -0.6512 -0.1035 -0.7934
 6243SOL     OW20169   1.360   4.468   7.458  0.1170 -0.0213  0.4863
 6243SOL    HW120170   1.431   4.457   7.394  1.6206 -1.0670  2.2195
 6243SOL    HW220171   1.289   4.413   7.424  0.2282  0.7569 -1.1010
 6244SOL     OW20172   6.958   1.996   3.732  0.3844 -0.1893  0.0594
 6244SOL    HW120173   6.996   2.065   3.678 -1.4582  1.6525  0.9847
 6244SOL    HW220174   6.864   2.005   3.722  0.0540 -3.0708 -0.2973
 6245SOL     OW20175   0.167   2.069  12.358  0.1579 -0.1504 -0.1727
 6245SOL    HW120176   0.080   2.058  12.395  0.3993  0.9200  0.7699
 6245SOL    HW220177   0.214   1.989  12.382 -0.5395 -0.7232 -0.6724
 6246SOL     OW20178   1.324   6.587   7.386  0.2515  0.1196  0.2051
 6246SOL    HW120179   1.311   6.555   7.475  0.4177  1.1103  0.5969
 6246SOL    HW220180   1.390   6.657   7.395  0.1581  0.3332 -0.6700
 6247SOL     OW20181   0.196   0.744   3.508  0.2975  0.0194  0.0725
 6247SOL    HW120182   0.237   0.829   3.524 -1.3961  1.0103 -0.6348
 6247SOL    HW220183   0.124   0.739   3.571 -0.4572 -0.2874 -0.7954
 6248SOL     OW20184   2.934   2.312   5.311 -0.3212  0.1944  0.2195
 6248SOL    HW120185   2.970   2.389   5.355  0.4077 -0.0232  0.0177
 6248SOL    HW220186   2.855   2.345   5.267  1.2577  1.4371 -1.8886
 6249SOL     OW20187   2.635   0.574   2.002  0.2454  0.2695  0.4505
 6249SOL    HW120188   2.707   0.597   1.942 -0.1892  1.0632  0.2203
 6249SOL    HW220189   2.662   0.491   2.041 -0.5007 -1.5458 -2.5573
 6250SOL     OW20190   2.874   1.282   9.474 -0.2206  0.2616  0.3616
 6250SOL    HW120191   2.941   1.280   9.542 -0.5231 -0.2668  0.6496
 6250SOL    HW220192   2.860   1.375   9.457  0.5993  0.3835  0.2788
 6251SOL     OW20193   4.570   0.160   7.394  0.4509 -0.3879 -0.3818
 6251SOL    HW120194   4.603   0.250   7.393  1.4358 -0.7295 -0.2139
 6251SOL    HW220195   4.481   0.167   7.428  0.8264  0.4274  0.4753
 6252SOL     OW20196   7.295   0.045   0.749 -0.0284 -0.1578  0.0382
 6252SOL    HW120197   7.346   0.121   0.777  2.4636 -1.2562 -1.1394
 6252SOL    HW220198   7.304  -0.018   0.821  0.8902 -0.5739 -0.4125
 6253SOL     OW20199   2.214   6.153   9.975  0.6035  0.0140 -0.4204
 6253SOL    HW120200   2.274   6.133  10.048 -1.1061 -0.8507  0.8312
 6253SOL    HW220201   2.140   6.198  10.017  0.6865  1.7616 -2.0422
 6254SOL     OW20202   0.142   5.554   1.651 -0.2100 -0.2728  0.1550
 6254SOL    HW120203   0.172   5.596   1.571  0.4948  0.7018  0.9060
 6254SOL    HW220204   0.120   5.627   1.709  2.3139 -0.8610  1.9874
 6255SOL     OW20205   3.147   1.659   7.854 -0.2766 -0.5899  0.6943
 6255SOL    HW120206   3.103   1.727   7.905 -0.1244 -0.8132  1.1239
 6255SOL    HW220207   3.186   1.601   7.919  1.1330 -0.0964  0.3189
 6256SOL     OW20208   6.120   4.981   4.479 -0.4096 -0.5755  0.2179
 6256SOL    HW120209   6.168   4.990   4.397 -0.5280  0.4721  0.2501
 6256SOL    HW220210   6.177   4.929   4.535  0.5842  0.4451  0.1730
 6257SOL     OW20211   3.790   7.375   2.724  0.0243 -0.5039 -0.6685
 6257SOL    HW120212   3.795   7.422   2.641 -0.9375  0.3320 -0.2777
 6257SOL    HW220213   3.857   7.415   2.778 -0.0598 -0.3214 -0.6990
 6258SOL     OW20214   4.884   0.510  10.499 -0.2945 -0.0228  0.3170
 6258SOL    HW120215   4.933   0.592  10.496 -0.2201 -0.0197  1.3359
 6258SOL    HW220216   4.866   0.496  10.592  1.8818 -2.4127  0.4909
 6259SOL     OW20217   2.545   0.200   3.616  0.0164  0.3307 -0.2834
 6259SOL    HW120218   2.474   0.226   3.558  1.5068  2.2228 -1.3915
 6259SOL    HW220219   2.513   0.121   3.660 -1.2315 -1.2081 -3.6224
 6260SOL     OW20220   3.315   1.282   8.578 -0.3220 -0.2604 -0.6335
 6260SOL    HW120221   3.306   1.297   8.484  0.3479  0.0687 -0.6538
 6260SOL    HW220222   3.274   1.197   8.593 -0.0577 -0.5141 -1.2990
 6261SOL     OW20223   3.984   0.200  12.042 -0.2563 -0.0293 -0.0463
 6261SOL    HW120224   4.000   0.293  12.057 -0.9877  0.1812 -0.5120
 6261SOL    HW220225   4.066   0.167  12.006  0.4892  0.1148  1.4603
 6262SOL     OW20226   4.723   7.469   3.204 -0.4428 -0.1910 -0.3115
 6262SOL    HW120227   4.679   7.456   3.120 -0.6408  0.1705 -0.2641
 6262SOL    HW220228   4.666   7.530   3.252  0.0225  0.1442 -0.1816
 6263SOL     OW20229   7.135   2.075   6.537 -0.0530  0.0071  0.3774
 6263SOL    HW120230   7.220   2.117   6.521  0.2686  0.0580  2.0293
 6263SOL    HW220231   7.139   2.049   6.629 -2.0548  0.5342  0.6524
 6264SOL     OW20232   3.211   7.502   2.386  0.1324 -0.3983  0.3313
 6264SOL    HW120233   3.250   7.587   2.408  1.9928 -0.9695 -0.5464
 6264SOL    HW220234   3.252   7.440   2.446 -1.1201 -0.7288  0.8779
 6265SOL     OW20235   7.023   5.563   4.492 -0.0182 -0.2070  0.1123
 6265SOL    HW120236   7.108   5.530   4.519 -0.5701  0.2289  2.6571
 6265SOL    HW220237   7.007   5.638   4.550 -1.8644  0.0834 -0.7010
 6266SOL     OW20238   2.877   7.006  10.148  0.2672 -0.3757  0.3528
 6266SOL    HW120239   2.814   6.935  10.140 -1.2690  0.8599  0.8370
 6266SOL    HW220240   2.855   7.066  10.076  0.5632  0.3034  0.8085
 6267SOL     OW20241   1.218   4.139   0.711 -0.4054 -0.4212 -0.0082
 6267SOL    HW120242   1.166   4.182   0.644 -0.9922 -1.5473 -0.2952
 6267SOL    HW220243   1.154   4.093   0.766  0.1604 -0.5017  0.5949
 6268SOL     OW20244   7.808   4.103   0.338 -0.1921 -0.4838  0.1705
 6268SOL    HW120245   7.858   4.048   0.398 -0.4355 -0.8409  0.0498
 6268SOL    HW220246   7.844   4.191   0.350  0.7455 -0.8041 -0.2202
 6269SOL     OW20247   5.502   5.279   8.169  0.0142  0.6342 -0.1289
 6269SOL    HW120248   5.408   5.297   8.179 -0.4266 -1.6704  0.4317
 6269SOL    HW220249   5.539   5.295   8.255 -0.3359 -0.7716  0.3083
 6270SOL     OW20250   6.008   6.022   7.583  0.1751  0.3372  0.8490
 6270SOL    HW120251   6.086   6.075   7.567 -0.0912  0.4558 -0.1419
 6270SOL    HW220252   5.940   6.065   7.531 -0.1110 -0.8307  0.2312
 6271SOL     OW20253   3.902   1.357   3.549 -0.3948 -0.1198  1.0363
 6271SOL    HW120254   3.963   1.319   3.486 -0.8365  0.0077  0.5227
 6271SOL    HW220255   3.817   1.319   3.526 -0.9189  1.4095  0.2766
 6272SOL     OW20256   0.898   5.415   8.676  0.0100 -0.8787  0.0685
 6272SOL    HW120257   0.926   5.339   8.625 -1.8033 -1.9648  0.6266
 6272SOL    HW220258   0.910   5.489   8.616  2.1961 -1.4818 -0.3512
 6273SOL     OW20259   4.890   1.953   2.836 -0.0911  0.3938  0.2232
 6273SOL    HW120260   4.806   1.965   2.879 -0.0526  0.7447  0.1977
 6273SOL    HW220261   4.926   1.873   2.876 -0.3557  0.3438  0.3595
 6274SOL     OW20262   4.592   6.827   1.036 -0.0469  0.4512  0.1307
 6274SOL    HW120263   4.517   6.767   1.043  0.1054  0.4627  3.0444
 6274SOL    HW220264   4.563   6.894   0.974 -2.5672  0.5397  1.2715
 6275SOL     OW20265   2.603   5.954   6.583 -0.2820  0.2367  0.0023
 6275SOL    HW120266   2.532   5.972   6.520 -1.1841 -0.1566  0.8905
 6275SOL    HW220267   2.667   5.904   6.533 -1.2485 -0.5596 -0.4702
 6276SOL     OW20268   1.905   7.186   7.998  0.1847 -0.6170 -0.5455
 6276SOL    HW120269   1.997   7.196   7.974 -0.2785  1.0874 -1.7618
 6276SOL    HW220270   1.859   7.253   7.948 -1.5697 -0.5396  1.0452
 6277SOL     OW20271   5.064   2.772  11.700  0.0505 -0.1670 -0.2806
 6277SOL    HW120272   4.997   2.747  11.764  0.2442  0.0315 -0.0006
 6277SOL    HW220273   5.145   2.777  11.751  0.2267 -0.1276 -0.5650
 6278SOL     OW20274   1.349   1.561   7.408 -0.4474  0.0323  0.4308
 6278SOL    HW120275   1.323   1.473   7.383  0.6338 -0.3187  0.4876
 6278SOL    HW220276   1.393   1.550   7.493  1.1973  0.3557 -0.3271
 6279SOL     OW20277   2.116   0.938   6.496 -0.2478  0.2957 -0.0388
 6279SOL    HW120278   2.101   1.020   6.544  1.3100  0.5060  0.1423
 6279SOL    HW220279   2.138   0.966   6.407  1.0617  0.1411  0.2186
 6280SOL     OW20280   3.992   3.945   5.840 -0.1186 -0.5727  0.9294
 6280SOL    HW120281   4.030   3.959   5.753  1.9992  3.0528  2.2098
 6280SOL    HW220282   3.928   4.015   5.850 -0.7169 -1.2497  2.1447
 6281SOL     OW20283   3.716   4.582   4.803 -0.0872  0.1386 -0.3501
 6281SOL    HW120284   3.684   4.495   4.828 -0.0469  0.3517  0.4614
 6281SOL    HW220285   3.734   4.574   4.709  0.8068 -1.0077 -0.1053
 6282SOL     OW20286   7.350   3.039   9.896  0.0104  0.6932 -0.0508
 6282SOL    HW120287   7.268   3.018   9.940 -0.6016  0.8394 -1.0845
 6282SOL    HW220288   7.323   3.077   9.812  1.1286  0.2390 -0.6379
 6283SOL     OW20289   4.915   4.897   2.642  0.6221  0.4202 -0.1826
 6283SOL    HW120290   4.855   4.969   2.624  0.3686 -0.1516 -1.7220
 6283SOL    HW220291   4.916   4.845   2.562  1.0336 -1.1269  0.7712
 6284SOL     OW20292   6.658   4.785   9.752 -0.1296 -0.5696  0.2164
 6284SOL    HW120293   6.676   4.702   9.706  0.4051  0.6048 -1.8488
 6284SOL    HW220294   6.734   4.798   9.808 -0.7783 -2.0399  1.4924
 6285SOL     OW20295   7.755   2.374   5.142 -0.3442  0.0204  0.0637
 6285SOL    HW120296   7.794   2.459   5.125 -0.5877  0.4939  1.7415
 6285SOL    HW220297   7.708   2.385   5.225  0.0723 -1.8930  0.5908
 6286SOL     OW20298   4.180   4.551   3.680 -0.1508  0.2289  0.4435
 6286SOL    HW120299   4.166   4.635   3.635  1.2122  0.8420  1.1098
 6286SOL    HW220300   4.113   4.493   3.643  0.4132  0.9108 -1.8343
 6287SOL     OW20301   2.632   7.508   6.860 -0.4471  0.4163  1.1451
 6287SOL    HW120302   2.604   7.423   6.827  0.3493  0.3212  0.7107
 6287SOL    HW220303   2.727   7.503   6.865 -0.2736  1.7360 -0.1766
 6288SOL     OW20304   2.367   6.551   2.892  0.8852  0.5312  0.2977
 6288SOL    HW120305   2.357   6.505   2.975 -0.4708  0.8873  0.3467
 6288SOL    HW220306   2.338   6.489   2.826  1.2655  0.5065  0.1506
 6289SOL     OW20307   4.193   2.680   8.199  0.1720  0.0383 -0.1562
 6289SOL    HW120308   4.218   2.744   8.132 -0.2014 -0.4440 -0.7703
 6289SOL    HW220309   4.156   2.607   8.149  0.2595 -0.5005  0.5572
 6290SOL     OW20310   0.332   2.453   6.912  0.2062  0.2267 -0.3191
 6290SOL    HW120311   0.320   2.480   6.821  0.8936 -1.1483 -0.8400
 6290SOL    HW220312   0.385   2.523   6.950  0.1987  0.6477 -1.0591
 6291SOL     OW20313   0.282   1.150   9.120 -0.1693  0.3353 -0.9835
 6291SOL    HW120314   0.263   1.057   9.134  0.4977  0.2127 -0.8764
 6291SOL    HW220315   0.196   1.192   9.124 -0.3843 -0.1524 -0.0843
 6292SOL     OW20316   1.463   2.392  10.851  0.0202  0.7833 -0.4986
 6292SOL    HW120317   1.550   2.431  10.851  0.1774  0.5029  1.0258
 6292SOL    HW220318   1.463   2.333  10.926 -1.2662  0.2725 -0.8727
 6293SOL     OW20319   7.890   0.100   0.212  0.2646  0.2034  0.3521
 6293SOL    HW120320   7.926   0.185   0.186 -1.7071  0.7562 -0.7827
 6293SOL    HW220321   7.806   0.121   0.253 -1.5689 -1.2644 -2.3591
 6294SOL     OW20322   3.382   3.406  12.217  0.2414  0.0245 -0.1614
 6294SOL    HW120323   3.411   3.447  12.298  1.7525  0.4050 -0.8471
 6294SOL    HW220324   3.463   3.381  12.172 -0.5666 -0.7850 -1.2526
 6295SOL     OW20325   0.684   4.032   1.992  0.0157  0.1941  0.3243
 6295SOL    HW120326   0.692   3.978   2.071  1.5342  1.5055  1.1270
 6295SOL    HW220327   0.606   4.085   2.006  0.9286  1.2760  1.5390
 6296SOL     OW20328   7.360   2.247  11.919  0.4867 -0.2854  0.1328
 6296SOL    HW120329   7.348   2.329  11.871  1.7781 -0.5161 -0.6463
 6296SOL    HW220330   7.441   2.261  11.969 -0.3557 -0.3803  1.5548
 6297SOL     OW20331   0.793   1.641   8.781 -0.7803  0.2991  0.3559
 6297SOL    HW120332   0.717   1.692   8.808 -1.7529 -1.3169  0.8454
 6297SOL    HW220333   0.755   1.562   8.742  0.6536 -0.4188  0.3636
 6298SOL     OW20334   1.998   0.524   7.976  0.0440  0.0748 -0.0481
 6298SOL    HW120335   2.084   0.558   7.950 -1.0187  2.3740 -0.8006
 6298SOL    HW220336   1.940   0.599   7.972 -1.8870 -1.2529  1.2141
 6299SOL     OW20337   4.533   4.564  12.037 -0.2965 -0.3391  0.0163
 6299SOL    HW120338   4.554   4.581  12.128 -0.2595 -1.9760  0.3448
 6299SOL    HW220339   4.438   4.577  12.031 -0.5513 -1.7160  0.6791
 6300SOL     OW20340   6.381   0.560  10.486  0.2630  0.0587 -0.2924
 6300SOL    HW120341   6.447   0.581  10.420  1.2999 -0.3110  0.5967
 6300SOL    HW220342   6.412   0.603  10.566 -0.8645  0.3299  0.0262
 6301SOL     OW20343   0.400   2.214   7.886  0.6487  0.1889  0.2893
 6301SOL    HW120344   0.481   2.238   7.931  1.1537 -1.4542  0.3361
 6301SOL    HW220345   0.413   2.241   7.796  0.6499  1.2409  0.5943
 6302SOL     OW20346   7.224   5.479   8.661 -0.3189 -0.4987  0.3592
 6302SOL    HW120347   7.221   5.562   8.708 -0.2006 -1.2248  1.6764
 6302SOL    HW220348   7.183   5.498   8.576  0.0186  0.9758  0.5001
 6303SOL     OW20349   7.895   1.973  10.596  0.5964 -0.1441 -0.1041
 6303SOL    HW120350   7.882   2.027  10.674 -2.4424  0.5363 -0.9874
 6303SOL    HW220351   7.886   1.883  10.628  0.6180  0.0746  0.5326
 6304SOL     OW20352   0.966   1.007  11.169  0.8883 -0.2255  0.2456
 6304SOL    HW120353   1.048   1.003  11.219  0.9882 -2.1065 -0.0171
 6304SOL    HW220354   0.898   1.008  11.236  1.0740 -0.7116  0.4459
 6305SOL     OW20355   7.240   2.539  12.267  0.0708 -0.0517  0.3250
 6305SOL    HW120356   7.249   2.630  12.239  0.6529  0.2107  1.3096
 6305SOL    HW220357   7.324   2.517  12.307 -0.7356 -0.3425  1.9409
 6306SOL     OW20358   0.734   1.878  11.493  0.1799  0.0698  0.6392
 6306SOL    HW120359   0.796   1.951  11.499 -0.7319  0.8935  0.3547
 6306SOL    HW220360   0.754   1.823  11.569 -0.0941  1.4315  1.7509
 6307SOL     OW20361   2.711   6.543   2.173 -0.4449  0.0420  0.1164
 6307SOL    HW120362   2.657   6.618   2.200 -0.8458  0.0024 -0.5563
 6307SOL    HW220363   2.681   6.472   2.229  1.7434  0.9516  2.6393
 6308SOL     OW20364   2.518   1.131   5.164  0.3148  0.0166  0.4369
 6308SOL    HW120365   2.452   1.123   5.232  0.8751 -0.3916  0.9507
 6308SOL    HW220366   2.549   1.041   5.150  0.9520  0.2347  0.4025
 6309SOL     OW20367   7.116   4.684   5.999 -0.0648  0.0300  0.2516
 6309SOL    HW120368   7.166   4.669   5.919 -0.3293  0.8001 -0.0609
 6309SOL    HW220369   7.037   4.631   5.988  0.0242 -0.0796  0.1301
 6310SOL     OW20370   1.404   7.643   8.947  0.7814  0.1522  0.5139
 6310SOL    HW120371   1.424   7.587   8.872  2.0921  0.8172  0.3315
 6310SOL    HW220372   1.398   7.731   8.910  1.9296  0.5565  1.2450
 6311SOL     OW20373   7.361   3.071   0.765  0.2710  0.6031 -0.0989
 6311SOL    HW120374   7.407   3.121   0.832 -0.2027  0.7124  0.1478
 6311SOL    HW220375   7.307   3.135   0.719  0.3056  0.4640 -0.3359
 6312SOL     OW20376   5.260   4.014   8.398  0.7558  0.3689 -0.2135
 6312SOL    HW120377   5.338   3.959   8.403  1.0685  0.7632 -0.7434
 6312SOL    HW220378   5.190   3.954   8.373  1.0312  0.1455 -0.4564
 6313SOL     OW20379   6.149   1.896   0.827 -0.3110 -0.3592 -0.3226
 6313SOL    HW120380   6.113   1.871   0.912 -0.6038 -0.7661 -0.5590
 6313SOL    HW220381   6.193   1.818   0.795 -0.3116 -0.2476 -0.6021
 6314SOL     OW20382   6.841   2.825   2.040 -0.1160  0.2904  0.4613
 6314SOL    HW120383   6.909   2.804   2.104 -1.5760  2.7717  3.1020
 6314SOL    HW220384   6.844   2.920   2.032 -1.5188  0.2319 -1.4416
 6315SOL     OW20385   3.107   5.595   3.983 -0.4045  0.1907 -0.4028
 6315SOL    HW120386   3.049   5.642   4.043 -0.4295  0.4370 -0.6200
 6315SOL    HW220387   3.193   5.632   3.999 -0.2131 -0.5420  0.2945
 6316SOL     OW20388   7.017   1.426   3.371 -0.3740  0.0146  0.0510
 6316SOL    HW120389   6.997   1.454   3.461 -2.1527 -0.7897 -0.0535
 6316SOL    HW220390   7.106   1.391   3.377  0.0436  1.1684  1.2028
 6317SOL     OW20391   4.425   2.647   4.657 -0.1479 -0.0269  0.3482
 6317SOL    HW120392   4.469   2.562   4.655 -0.8953 -0.4109 -0.0944
 6317SOL    HW220393   4.335   2.628   4.632 -0.1149  1.0321 -0.6278
 6318SOL     OW20394   3.014   0.729   6.639  0.3854  0.0349  1.0629
 6318SOL    HW120395   2.941   0.668   6.641 -0.1213  0.6473  1.7683
 6318SOL    HW220396   2.981   0.804   6.590  0.6691  0.1510  1.0477
 6319SOL     OW20397   2.596   2.862  10.833  0.4093 -0.0587  0.0715
 6319SOL    HW120398   2.601   2.797  10.763 -1.4912  0.7607 -0.8884
 6319SOL    HW220399   2.596   2.811  10.913 -0.4318 -1.2321 -0.6395
 6320SOL     OW20400   6.534   5.174   7.765 -0.0699 -0.4192 -0.2468
 6320SOL    HW120401   6.545   5.219   7.681 -1.9149 -0.8267 -0.7514
 6320SOL    HW220402   6.541   5.081   7.744 -0.3464 -0.5132  0.0608
 6321SOL     OW20403   0.024   0.566   8.347  0.2477 -0.3230  0.2443
 6321SOL    HW120404  -0.016   0.554   8.260  0.1894  0.4105  0.1630
 6321SOL    HW220405   0.104   0.615   8.329 -0.1842  0.5572  0.6888
 6322SOL     OW20406   3.604   5.219   2.720  0.1328  0.2314 -0.1552
 6322SOL    HW120407   3.509   5.219   2.710  0.2252 -0.4154 -1.0592
 6322SOL    HW220408   3.621   5.151   2.786  0.1541 -1.7302 -2.0828
 6323SOL     OW20409   5.321   7.562  11.015 -0.3844 -0.4605 -0.0192
 6323SOL    HW120410   5.290   7.584  10.927 -0.7962 -0.4179  0.1354
 6323SOL    HW220411   5.411   7.595  11.017 -0.1215 -1.1089 -0.6733
 6324SOL     OW20412   4.016   6.641   2.324 -0.0087 -0.1344 -0.3900
 6324SOL    HW120413   3.926   6.674   2.329 -0.1296 -0.5776  0.6741
 6324SOL    HW220414   4.071   6.718   2.338 -0.2969 -0.4202  3.2271
 6325SOL     OW20415   2.076   2.594  11.229  0.1566 -0.2400  0.4576
 6325SOL    HW120416   1.991   2.598  11.184  0.5332 -0.6430 -0.2953
 6325SOL    HW220417   2.138   2.567  11.162  0.5467 -1.9797  1.4427
 6326SOL     OW20418   7.858   4.803  11.974 -0.1079  0.2866  0.1808
 6326SOL    HW120419   7.902   4.839  11.897  0.6924  1.2336  1.0448
 6326SOL    HW220420   7.832   4.715  11.948  1.8366 -0.1136 -0.5760
 6327SOL     OW20421   6.648   4.098   4.353 -0.0849  0.4468  0.2762
 6327SOL    HW120422   6.597   4.019   4.374  0.8681 -0.4178 -0.6046
 6327SOL    HW220423   6.606   4.167   4.404  0.0613 -0.9266  2.3678
 6328SOL     OW20424   7.624   6.724   2.331 -0.3509 -0.2664 -0.3417
 6328SOL    HW120425   7.549   6.779   2.353 -0.8280 -1.7805  2.3748
 6328SOL    HW220426   7.690   6.784   2.298 -1.9394  1.4397 -0.5651
 6329SOL     OW20427   1.974   0.811   0.487  0.2868  0.1455  0.3322
 6329SOL    HW120428   1.935   0.880   0.541 -0.0371 -0.8136  1.3548
 6329SOL    HW220429   1.901   0.778   0.434 -0.4292 -1.7533  2.3547
 6330SOL     OW20430   5.114   7.054  12.247  0.3330  0.0322  0.2927
 6330SOL    HW120431   5.081   7.091  12.165 -0.4788 -0.6904  0.2798
 6330SOL    HW220432   5.077   7.112  12.315 -0.9002 -0.6854  0.2695
 6331SOL     OW20433   3.934   7.069   9.967 -0.6447 -0.0899  0.6053
 6331SOL    HW120434   3.958   7.076  10.059  0.8895 -1.0037  0.3219
 6331SOL    HW220435   3.873   7.141   9.952 -1.0201 -0.0045  2.3504
 6332SOL     OW20436   0.110   3.411   3.986  0.5855 -0.3144 -0.5838
 6332SOL    HW120437   0.082   3.411   3.894 -1.4360  4.0124 -0.1977
 6332SOL    HW220438   0.029   3.396   4.035  0.4389  3.0827  0.4388
 6333SOL     OW20439   1.057   6.455  11.318 -0.5006 -0.4419  0.8181
 6333SOL    HW120440   1.023   6.400  11.247  0.5849 -0.6843  0.4611
 6333SOL    HW220441   1.151   6.435  11.320  0.1417  2.1518 -0.0315
 6334SOL     OW20442   6.473   4.471   6.086 -0.6244 -0.0837 -0.3075
 6334SOL    HW120443   6.445   4.535   6.021 -2.1948 -0.4460 -0.0250
 6334SOL    HW220444   6.519   4.404   6.036  1.7462  1.5717 -0.5201
 6335SOL     OW20445   3.097   6.659   9.793 -0.9452  0.2332  0.2508
 6335SOL    HW120446   3.139   6.653   9.707 -0.5542  1.4567  0.3399
 6335SOL    HW220447   3.160   6.708   9.846 -1.0364 -0.8034  1.3316
 6336SOL     OW20448   4.169   2.085   4.978  0.0725  0.3563 -0.0628
 6336SOL    HW120449   4.118   2.018   5.023 -0.5078  0.4547 -0.5579
 6336SOL    HW220450   4.224   2.124   5.046  0.4982 -0.6930  0.2161
 6337SOL     OW20451   2.855   2.353   2.665 -0.3428 -0.1118 -0.0498
 6337SOL    HW120452   2.880   2.296   2.738  0.5389  0.3058 -0.0080
 6337SOL    HW220453   2.935   2.401   2.644 -0.8014  0.3618 -0.7629
 6338SOL     OW20454   7.478   3.346   1.348  0.6113 -0.2690  0.0562
 6338SOL    HW120455   7.437   3.398   1.279  1.2082 -0.1153 -0.1917
 6338SOL    HW220456   7.537   3.287   1.302  0.2582 -0.8787  0.3681
 6339SOL     OW20457   2.838   7.373   1.957 -0.0559 -0.7959  0.0483
 6339SOL    HW120458   2.917   7.419   1.931  1.4732 -2.6301  1.2036
 6339SOL    HW220459   2.780   7.442   1.990  1.4416  0.4719  0.1398
 6340SOL     OW20460   4.901   1.619   6.535 -0.1132  0.1061  0.3064
 6340SOL    HW120461   4.855   1.702   6.523 -0.3278  0.0689  0.8234
 6340SOL    HW220462   4.989   1.644   6.565 -0.2856  0.1443  0.7925
 6341SOL     OW20463   4.825   0.501   5.392  0.1027 -0.5648 -0.3117
 6341SOL    HW120464   4.812   0.577   5.335  1.8576  0.7847  0.9898
 6341SOL    HW220465   4.889   0.447   5.346  0.5184 -0.1437 -0.2290
 6342SOL     OW20466   7.657   6.171  10.688 -0.4051  0.4340  0.0493
 6342SOL    HW120467   7.685   6.254  10.649 -1.4067  0.2543 -1.0896
 6342SOL    HW220468   7.699   6.104  10.634 -1.7432  0.1838 -0.7143
 6343SOL     OW20469   1.424   4.488   4.289 -0.0799  0.5853 -0.8588
 6343SOL    HW120470   1.501   4.513   4.339 -0.9160  0.2000  0.6963
 6343SOL    HW220471   1.399   4.567   4.242  0.5691  1.0588 -0.4298
 6344SOL     OW20472   2.629   3.749   1.313 -0.1378 -0.2113  0.0055
 6344SOL    HW120473   2.537   3.771   1.326 -0.1269 -0.6781  0.9212
 6344SOL    HW220474   2.627   3.663   1.271 -0.1238 -0.2130  0.0083
 6345SOL     OW20475   1.098   7.854   0.487 -0.5609 -0.1238  0.5337
 6345SOL    HW120476   1.028   7.789   0.485 -1.3644  0.6981  1.0801
 6345SOL    HW220477   1.106   7.879   0.579 -0.4784  0.7785  0.2915
 6346SOL     OW20478   4.069   3.292   4.598 -0.0061 -0.9741  0.1206
 6346SOL    HW120479   4.095   3.271   4.688  0.2543 -1.9907 -0.1742
 6346SOL    HW220480   4.067   3.387   4.595  0.0977 -0.9271  1.1724
 6347SOL     OW20481   0.105   0.987   1.400 -0.3821 -0.2888  0.2590
 6347SOL    HW120482   0.139   1.075   1.412  1.5714 -0.6993 -1.7331
 6347SOL    HW220483   0.047   0.994   1.324 -0.9774 -0.5568  0.6796
 6348SOL     OW20484   5.746   2.304   4.571 -0.2364  0.6522 -0.1262
 6348SOL    HW120485   5.796   2.368   4.622 -0.1359  0.7148 -0.3025
 6348SOL    HW220486   5.767   2.220   4.612  0.0813  0.6685 -0.2525
 6349SOL     OW20487   7.945   6.506  11.020  0.5239 -0.3783 -0.2699
 6349SOL    HW120488   7.880   6.440  11.044  2.1364 -1.6501  0.8233
 6349SOL    HW220489   7.988   6.528  11.102  0.9176  1.0901 -0.8368
 6350SOL     OW20490   0.188   4.885  11.333  0.3013 -0.1000 -0.1834
 6350SOL    HW120491   0.178   4.931  11.249  1.8239  0.1647 -0.2333
 6350SOL    HW220492   0.102   4.844  11.347  0.0629 -0.3037 -1.9525
 6351SOL     OW20493   1.467   3.087   3.062 -0.1863 -0.4338 -0.1363
 6351SOL    HW120494   1.464   3.027   2.988 -1.3676  0.8539 -1.1729
 6351SOL    HW220495   1.380   3.125   3.067  0.8579  2.2151 -0.3995
 6352SOL     OW20496   3.442   3.543  11.920 -0.2232 -0.0807  0.1008
 6352SOL    HW120497   3.360   3.507  11.952  0.5495 -0.6792  1.5469
 6352SOL    HW220498   3.509   3.499  11.973  0.9539  1.1332 -0.3240
 6353SOL     OW20499   1.608   7.644   6.023 -0.2775  0.4111  0.1725
 6353SOL    HW120500   1.596   7.566   5.969 -1.3879  0.1067  0.8176
 6353SOL    HW220501   1.546   7.708   5.987 -1.4703  0.0052  1.4076
 6354SOL     OW20502   4.790   2.617   9.766 -0.0458 -0.3764  0.5797
 6354SOL    HW120503   4.805   2.685   9.700  0.9162 -1.0355  0.1008
 6354SOL    HW220504   4.756   2.665   9.842  1.9579  0.8728  0.7768
 6355SOL     OW20505   6.910   1.619   0.673  0.7816  0.2047 -0.2857
 6355SOL    HW120506   6.896   1.541   0.726  2.3742 -2.8372 -3.8446
 6355SOL    HW220507   6.823   1.642   0.640  0.4147 -0.6773  0.0491
 6356SOL     OW20508   2.977   6.935   9.362  0.5972 -0.6498  0.1141
 6356SOL    HW120509   2.933   7.002   9.310  0.5988 -0.3760  0.4572
 6356SOL    HW220510   3.062   6.973   9.383  1.4218 -1.5724 -1.3775
 6357SOL     OW20511   1.973   2.341   3.115  0.3588  0.1040 -0.1841
 6357SOL    HW120512   2.012   2.277   3.175 -0.3402 -0.3473 -0.1972
 6357SOL    HW220513   1.899   2.377   3.164  0.2840  0.3388 -0.4705
 6358SOL     OW20514   5.455   5.868   8.620  0.3599 -0.6842 -0.6457
 6358SOL    HW120515   5.510   5.814   8.563  0.0847  0.4917 -2.0886
 6358SOL    HW220516   5.517   5.922   8.668  0.5251  0.7131 -2.3445
 6359SOL     OW20517   3.304   4.798   3.163  0.7596 -0.1076 -0.6999
 6359SOL    HW120518   3.252   4.864   3.209 -0.9890 -2.5705  1.1764
 6359SOL    HW220519   3.239   4.743   3.119  1.8787 -1.9713 -0.1639
 6360SOL     OW20520   6.493   7.377   1.944 -0.2166  0.2697 -0.0401
 6360SOL    HW120521   6.440   7.457   1.936 -0.8830 -0.2093 -0.5803
 6360SOL    HW220522   6.452   7.315   1.883  0.6044 -0.3187 -0.0109
 6361SOL     OW20523   4.129   6.823  10.143  0.1392  0.2037  0.1814
 6361SOL    HW120524   4.132   6.868  10.059 -0.2450  0.5891  0.3619
 6361SOL    HW220525   4.035   6.809  10.158  0.2391 -0.3384  0.2956
 6362SOL     OW20526   1.897   1.032   5.862 -0.8958 -0.6510 -0.1386
 6362SOL    HW120527   1.805   1.040   5.835 -0.8654  0.5462  0.0867
 6362SOL    HW220528   1.895   1.045   5.957 -0.3878  0.3555 -0.2547
 6363SOL     OW20529   2.208   3.957   7.579  0.7206 -0.1368  0.4005
 6363SOL    HW120530   2.121   3.933   7.611  0.1460 -0.0923 -1.0361
 6363SOL    HW220531   2.243   3.874   7.545  0.6496  0.1162 -0.3024
 6364SOL     OW20532   6.262   7.107   6.651  0.1404 -0.2148  0.0019
 6364SOL    HW120533   6.172   7.139   6.648  0.1632 -0.1829 -0.3207
 6364SOL    HW220534   6.283   7.086   6.560  0.8540  0.8789 -0.0981
 6365SOL     OW20535   5.625   7.581   2.967  0.0781  0.3260 -0.2364
 6365SOL    HW120536   5.529   7.578   2.971  0.1371 -0.9248  0.6054
 6365SOL    HW220537   5.645   7.670   2.938 -1.4009 -0.1661 -3.0936
 6366SOL     OW20538   5.703   4.471   5.321  0.5955  0.5531  0.0317
 6366SOL    HW120539   5.747   4.520   5.391 -0.2614  0.4521  0.6618
 6366SOL    HW220540   5.706   4.380   5.350 -1.3954  0.6986  0.9107
 6367SOL     OW20541   7.504   7.180   6.606  0.1952 -0.2194 -1.1016
 6367SOL    HW120542   7.517   7.236   6.682 -1.3112  0.6926 -1.4688
 6367SOL    HW220543   7.591   7.148   6.584  1.0479  1.6493 -0.6129
 6368SOL     OW20544   1.232   3.254   5.695 -0.4698 -0.0903  0.4851
 6368SOL    HW120545   1.302   3.318   5.685 -0.5328 -0.1005 -0.0629
 6368SOL    HW220546   1.153   3.307   5.703 -0.6442 -0.0925 -0.9396
 6369SOL     OW20547   1.350   5.340   6.252  0.0679  0.2240  0.5545
 6369SOL    HW120548   1.307   5.412   6.298 -0.4390  0.8748 -0.8595
 6369SOL    HW220549   1.441   5.366   6.245 -0.2876  1.1967 -0.7586
 6370SOL     OW20550   4.439   0.392   5.314 -0.2058 -0.4187 -0.1567
 6370SOL    HW120551   4.388   0.313   5.295 -1.6568  0.9966 -2.7554
 6370SOL    HW220552   4.379   0.465   5.295  1.7151  1.3152  0.0380
 6371SOL     OW20553   1.621   3.744   7.109 -0.1376 -0.3181 -0.1888
 6371SOL    HW120554   1.666   3.682   7.053 -0.7499 -0.7110 -0.2568
 6371SOL    HW220555   1.547   3.776   7.057 -1.4575 -1.6270  0.7879
 6372SOL     OW20556   3.534   7.065   8.435 -0.1198  0.2492  0.0864
 6372SOL    HW120557   3.439   7.054   8.441  0.0281 -0.6236  1.1914
 6372SOL    HW220558   3.552   7.142   8.490  0.1123 -1.4931  2.5957
 6373SOL     OW20559   4.386   2.465   2.573  0.2902 -0.1270  0.0041
 6373SOL    HW120560   4.300   2.444   2.611  0.3228 -0.6334 -0.1983
 6373SOL    HW220561   4.422   2.532   2.631 -0.8639  1.1825 -0.7205
 6374SOL     OW20562   0.447   5.463   9.975  0.4353 -0.1063 -0.5556
 6374SOL    HW120563   0.384   5.475   9.904  0.4427  2.3982 -0.2510
 6374SOL    HW220564   0.394   5.443  10.052 -0.0398  1.7385 -0.3551
 6375SOL     OW20565   0.410   1.476   7.394 -0.1351 -0.0171 -0.0106
 6375SOL    HW120566   0.472   1.413   7.430 -0.4443 -1.9223 -2.5255
 6375SOL    HW220567   0.460   1.524   7.327 -0.3645  1.2420  0.6902
 6376SOL     OW20568   7.330   7.492   0.687 -0.0589 -0.5059  0.0120
 6376SOL    HW120569   7.390   7.561   0.717 -1.4767  0.3498  0.9633
 6376SOL    HW220570   7.275   7.473   0.762 -1.1733 -1.0856 -0.9212
 6377SOL     OW20571   0.238   2.064   3.228 -0.2989 -0.4348  0.4193
 6377SOL    HW120572   0.290   1.983   3.226 -0.5577 -0.5895 -0.3861
 6377SOL    HW220573   0.151   2.037   3.201 -0.7810 -0.1482  1.6215
 6378SOL     OW20574   7.820   2.642   5.070 -0.3941 -0.5750 -0.1902
 6378SOL    HW120575   7.889   2.659   5.006 -0.0481 -0.8431  0.1035
 6378SOL    HW220576   7.834   2.707   5.139 -1.1035  0.0706 -0.6395
 6379SOL     OW20577   0.178   6.526   2.185  0.2983  0.3284  0.5273
 6379SOL    HW120578   0.133   6.480   2.114 -1.2502  0.2382  1.5354
 6379SOL    HW220579   0.109   6.571   2.232  1.5965  2.4776  0.4965
 6380SOL     OW20580   4.987   4.376  11.726  0.0967  0.1499  0.8769
 6380SOL    HW120581   4.900   4.415  11.729 -0.1047 -0.3265  2.3476
 6380SOL    HW220582   4.972   4.286  11.695  0.4809  0.9367 -1.8584
 6381SOL     OW20583   0.230   4.770   3.440  0.2618 -0.3278  0.3649
 6381SOL    HW120584   0.240   4.676   3.429  0.6866 -0.1690 -0.7208
 6381SOL    HW220585   0.238   4.784   3.535  0.7429 -1.3143  0.4836
 6382SOL     OW20586   7.472   1.135   5.928  0.3829 -0.3050  0.5648
 6382SOL    HW120587   7.382   1.158   5.905  1.3211  1.1797 -2.0271
 6382SOL    HW220588   7.486   1.050   5.887  0.6772  0.3325 -0.7354
 6383SOL     OW20589   3.216   4.913   7.742  0.3268 -0.5695 -0.1008
 6383SOL    HW120590   3.296   4.966   7.746  1.2358 -1.8211 -0.8194
 6383SOL    HW220591   3.216   4.876   7.654 -0.4860 -1.4468  0.2520
 6384SOL     OW20592   4.450   0.551   0.275 -0.7976 -0.6509  0.1370
 6384SOL    HW120593   4.366   0.585   0.243 -0.6328 -0.0151  0.3532
 6384SOL    HW220594   4.480   0.618   0.336  0.1396 -0.5964 -0.3674
 6385SOL     OW20595   0.339   0.779  11.966 -0.8299 -0.1924  0.1349
 6385SOL    HW120596   0.370   0.786  11.875  2.7355 -2.3768  0.9624
 6385SOL    HW220597   0.398   0.835  12.016 -2.7495  0.9890  1.1673
 6386SOL     OW20598   6.174   0.670  11.963 -0.0100 -0.0331 -0.1347
 6386SOL    HW120599   6.236   0.668  12.036 -0.4070  2.8448  0.4343
 6386SOL    HW220600   6.211   0.735  11.903 -1.4369  0.2226 -0.7733
 6387SOL     OW20601   5.868   2.278   7.299  0.8282 -0.1721 -0.7265
 6387SOL    HW120602   5.892   2.369   7.281  0.1232  0.0094 -0.7648
 6387SOL    HW220603   5.951   2.230   7.295  1.2873  0.5552 -0.1347
 6388SOL     OW20604   1.538   7.186   0.420  0.3430  0.1778  0.1677
 6388SOL    HW120605   1.460   7.194   0.476  1.1694 -0.8374  1.5304
 6388SOL    HW220606   1.598   7.253   0.452  2.0622 -2.3580  2.7487
 6389SOL     OW20607   1.713   7.145   9.974 -0.0916 -0.1277  0.2759
 6389SOL    HW120608   1.710   7.202  10.051 -0.4616 -1.7999  1.5619
 6389SOL    HW220609   1.625   7.110   9.966 -0.0186 -0.1051 -0.8364
 6390SOL     OW20610   2.124   4.202   1.884  0.7231  0.2831 -0.1988
 6390SOL    HW120611   2.187   4.269   1.858 -0.6867  2.0557  0.6929
 6390SOL    HW220612   2.058   4.205   1.815  1.2188 -1.0443 -0.7516
 6391SOL     OW20613   2.936   0.241   7.134 -0.1871  0.0728 -0.3275
 6391SOL    HW120614   2.994   0.306   7.094 -0.2942 -0.2729 -1.0642
 6391SOL    HW220615   2.995   0.183   7.182  0.0049  0.1576 -0.4602
 6392SOL     OW20616   5.132   6.566   1.394  0.4872  0.0591 -0.4560
 6392SOL    HW120617   5.110   6.608   1.477 -0.4194  1.3773 -1.3238
 6392SOL    HW220618   5.062   6.502   1.381  1.9470 -1.9435  0.9379
 6393SOL     OW20619   3.918   1.465   6.546 -0.2532 -0.3903 -0.0130
 6393SOL    HW120620   3.949   1.452   6.636  0.9686  3.0932  0.2155
 6393SOL    HW220621   3.825   1.485   6.556  0.2231  1.7375  0.7793
 6394SOL     OW20622   7.794   5.353   4.637  0.1139  0.0030 -0.0125
 6394SOL    HW120623   7.781   5.271   4.589  0.5404 -0.7476  1.1189
 6394SOL    HW220624   7.773   5.421   4.573 -2.7163 -0.9726 -0.3081
 6395SOL     OW20625   0.438   5.472   9.052 -0.0882 -0.1485  0.3872
 6395SOL    HW120626   0.414   5.547   9.107 -0.8099 -0.6041  0.7103
 6395SOL    HW220627   0.360   5.457   8.997  0.2444 -0.3386 -0.0396
 6396SOL     OW20628   4.590   3.287  12.218 -0.1178 -0.1422 -0.0373
 6396SOL    HW120629   4.638   3.209  12.190  0.6322 -0.6356  2.3668
 6396SOL    HW220630   4.505   3.254  12.245 -0.1487  0.0265  0.0711
 6397SOL     OW20631   7.284   1.529   2.150 -0.2312 -0.5773  0.2423
 6397SOL    HW120632   7.287   1.605   2.209  0.2402  0.4683 -1.0574
 6397SOL    HW220633   7.357   1.474   2.177 -1.5208 -1.4360  2.2409
 6398SOL     OW20634   1.774   4.151   2.620 -0.4031  0.2841 -0.7801
 6398SOL    HW120635   1.747   4.178   2.532 -1.3608  1.3067 -0.2040
 6398SOL    HW220636   1.719   4.076   2.641 -1.0670  0.8103 -0.5897
 6399SOL     OW20637   7.206   5.700   0.959  0.2438 -0.1302  0.1076
 6399SOL    HW120638   7.117   5.670   0.981  0.4069  0.4892  1.7842
 6399SOL    HW220639   7.255   5.619   0.943 -0.0726 -0.6310  1.5202
 6400SOL     OW20640   0.999   6.252   0.537 -0.0757  0.1051 -0.5855
 6400SOL    HW120641   0.994   6.158   0.550  0.5442  0.2495  0.8913
 6400SOL    HW220642   1.031   6.262   0.447  0.8612 -1.1134 -0.4190
 6401SOL     OW20643   1.918   0.936  12.021  0.3783 -0.2852 -0.5323
 6401SOL    HW120644   1.977   1.008  11.999  1.0886 -1.1169 -1.5113
 6401SOL    HW220645   1.977   0.862  12.038 -0.3258 -0.5905  0.6320
 6402SOL     OW20646   2.690   2.075  11.802 -0.5047  0.1894  0.3953
 6402SOL    HW120647   2.610   2.096  11.755 -0.7054 -1.7089 -0.1811
 6402SOL    HW220648   2.691   1.979  11.808  0.6244  0.2554  2.3284
 6403SOL     OW20649   1.330   6.391   7.959 -0.1653  0.1653  0.6970
 6403SOL    HW120650   1.417   6.411   7.923 -0.8426  1.4450 -0.2897
 6403SOL    HW220651   1.330   6.295   7.968  1.1521  0.0938  0.2252
 6404SOL     OW20652   2.723   0.876   5.624 -0.5803 -0.0104  0.4136
 6404SOL    HW120653   2.813   0.846   5.636 -0.3535  0.7332  0.6463
 6404SOL    HW220654   2.700   0.846   5.536  0.4737  1.1620 -0.3024
 6405SOL     OW20655   2.103   7.598   9.414  0.7206 -0.2924 -0.2519
 6405SOL    HW120656   2.176   7.543   9.442  1.3193  1.0965  1.1356
 6405SOL    HW220657   2.145   7.675   9.375 -0.0500 -0.2025 -0.9219
 6406SOL     OW20658   2.642   0.937   4.534  0.2155 -0.3478  0.5379
 6406SOL    HW120659   2.659   0.883   4.456  0.8597 -1.7598  1.6100
 6406SOL    HW220660   2.662   1.026   4.506  0.8231 -0.8799 -0.8024
 6407SOL     OW20661   3.712   6.580   0.316 -0.3581  0.1549  0.6750
 6407SOL    HW120662   3.733   6.660   0.268  2.2911 -1.6411 -1.5026
 6407SOL    HW220663   3.782   6.572   0.381 -0.6094 -0.3725  0.8845
 6408SOL     OW20664   1.312   0.076   8.002  0.0360  0.4385 -0.4392
 6408SOL    HW120665   1.222   0.107   7.997  0.5769  1.8773 -2.1380
 6408SOL    HW220666   1.334   0.049   7.913  0.7090 -1.7383  0.3114
 6409SOL     OW20667   2.929   0.396   2.247 -0.0725  0.2008 -0.1655
 6409SOL    HW120668   2.937   0.474   2.302  0.4819 -0.0077  0.0545
 6409SOL    HW220669   2.959   0.324   2.303 -0.5543 -0.1659 -0.3763
 6410SOL     OW20670   0.594   1.102   0.629  0.0201 -0.0245 -0.4263
 6410SOL    HW120671   0.667   1.145   0.585  0.0589  1.8006  1.3171
 6410SOL    HW220672   0.541   1.173   0.664 -0.6341 -1.3535  1.4757
 6411SOL     OW20673   7.035   0.547   6.250 -0.3371  0.3696 -0.0822
 6411SOL    HW120674   6.992   0.606   6.189  0.5346  1.0392 -0.0641
 6411SOL    HW220675   7.116   0.592   6.275  0.0935 -0.5987  0.3345
 6412SOL     OW20676   6.306   3.981   6.974  0.4357  0.1816 -0.4520
 6412SOL    HW120677   6.329   3.899   6.930 -0.5153  0.0075 -0.6557
 6412SOL    HW220678   6.390   4.024   6.990  0.9244 -0.6647 -0.6645
 6413SOL     OW20679   7.852   7.149  10.377  0.3369  0.2278  0.3005
 6413SOL    HW120680   7.854   7.244  10.368 -0.4836  0.1904 -0.4081
 6413SOL    HW220681   7.771   7.123  10.334  0.6308 -0.8104  0.3587
 6414SOL     OW20682   1.198   2.312  11.000  0.6809  0.0156 -0.0355
 6414SOL    HW120683   1.213   2.343  11.089 -0.7880 -2.5869  1.2518
 6414SOL    HW220684   1.228   2.221  11.001 -3.3287 -1.5452 -0.7547
 6415SOL     OW20685   3.719   7.881   9.939  0.3721 -0.5400  0.1157
 6415SOL    HW120686   3.771   7.961   9.950  0.8428 -0.6615 -1.1229
 6415SOL    HW220687   3.754   7.821  10.004  1.5980 -0.5185 -0.5070
 6416SOL     OW20688   7.624   0.765   8.552 -0.1591  0.0600 -0.2673
 6416SOL    HW120689   7.657   0.796   8.468 -0.2249  1.0444  0.0629
 6416SOL    HW220690   7.695   0.784   8.614 -1.1779  1.9423  0.4056
 6417SOL     OW20691   1.316   0.777   8.732 -0.1757  0.8442 -0.2838
 6417SOL    HW120692   1.244   0.836   8.757 -0.4573  0.2114  0.4498
 6417SOL    HW220693   1.284   0.690   8.757  0.1362  0.3482 -1.5691
 6418SOL     OW20694   6.832   4.584  10.529  0.3995  0.0188 -1.2467
 6418SOL    HW120695   6.756   4.636  10.555  0.4926 -1.6173  3.1452
 6418SOL    HW220696   6.796   4.512  10.478 -0.9068 -0.1683 -0.1089
 6419SOL     OW20697   7.266   5.523   9.767 -0.0114 -0.1523 -0.0982
 6419SOL    HW120698   7.300   5.436   9.743  0.4500  0.2607 -0.9861
 6419SOL    HW220699   7.319   5.584   9.716 -0.5176  0.6398  0.3133
 6420SOL     OW20700   1.495   2.401   1.432  0.4422 -0.2732  0.4541
 6420SOL    HW120701   1.432   2.422   1.363  0.1844  0.8431  1.0064
 6420SOL    HW220702   1.513   2.308   1.421 -0.4916 -0.3663 -0.3781
 6421SOL     OW20703   2.369   2.727   3.513 -0.2594 -0.0812  0.3856
 6421SOL    HW120704   2.316   2.648   3.509  0.2072 -0.3536 -1.0989
 6421SOL    HW220705   2.341   2.778   3.436  1.0303  0.1374  0.0444
 6422SOL     OW20706   3.149   1.852  11.517 -0.0990  0.3306 -0.3668
 6422SOL    HW120707   3.112   1.773  11.556 -0.7798  0.8093 -0.0193
 6422SOL    HW220708   3.232   1.824  11.479 -0.1225 -0.4540  0.1460
 6423SOL     OW20709   7.504   5.029   9.414  0.2906 -0.4410 -0.0401
 6423SOL    HW120710   7.561   4.976   9.469 -0.0891  1.5086  2.4763
 6423SOL    HW220711   7.419   4.986   9.419  0.1496 -0.0596  1.4012
 6424SOL     OW20712   0.045   7.643  11.734  0.6930  0.2277 -0.3837
 6424SOL    HW120713   0.021   7.556  11.703  1.8442  0.7852 -3.1035
 6424SOL    HW220714  -0.012   7.658  11.810  1.6338 -3.5034  1.2792
 6425SOL     OW20715   3.821   6.003   6.510 -0.0564 -0.1116 -0.0332
 6425SOL    HW120716   3.833   5.999   6.605 -0.7035  1.6707  0.1737
 6425SOL    HW220717   3.908   5.987   6.474 -0.2949 -3.9041  0.6530
 6426SOL     OW20718   6.387   4.541   7.830  0.2064  0.1553 -0.2263
 6426SOL    HW120719   6.376   4.594   7.910 -0.7820  0.8833 -0.8213
 6426SOL    HW220720   6.314   4.567   7.774  0.9960 -0.2094 -1.4574
 6427SOL     OW20721   7.073   3.178   6.889  0.1039  0.1158 -0.4987
 6427SOL    HW120722   7.019   3.249   6.854 -0.0147 -1.0585 -2.8791
 6427SOL    HW220723   7.163   3.201   6.864  0.2437  0.1143 -0.0151
 6428SOL     OW20724   2.230   5.260   0.653  0.1658 -0.4960 -0.1123
 6428SOL    HW120725   2.183   5.299   0.579 -1.2327 -1.1550  0.4038
 6428SOL    HW220726   2.275   5.184   0.616  0.4319 -0.1492 -0.5085
 6429SOL     OW20727   6.358   5.775  11.003  0.5857 -0.2865 -0.1955
 6429SOL    HW120728   6.315   5.794  11.086 -0.6662 -2.3120 -0.3034
 6429SOL    HW220729   6.451   5.768  11.025  0.2391 -1.0857  1.1081
 6430SOL     OW20730   7.491   3.326  11.491  0.0765  0.0188 -0.3723
 6430SOL    HW120731   7.584   3.321  11.467  0.1719  0.3515 -0.0950
 6430SOL    HW220732   7.458   3.238  11.477  0.3536 -0.0220 -0.8046
 6431SOL     OW20733   2.399   2.141   2.673  1.1466  0.2911 -0.2720
 6431SOL    HW120734   2.307   2.163   2.684  1.3195  0.6511  0.5614
 6431SOL    HW220735   2.442   2.226   2.662  1.6442  0.3236  1.5470
 6432SOL     OW20736   2.223   1.091   0.755 -0.2874 -0.9283 -0.8165
 6432SOL    HW120737   2.143   1.096   0.704 -0.2730 -0.1767 -0.7740
 6432SOL    HW220738   2.279   1.032   0.706 -0.9657 -1.6822 -0.7061
 6433SOL     OW20739   6.341   2.813   4.502 -0.3032 -0.4908  0.4010
 6433SOL    HW120740   6.293   2.758   4.441 -1.3143 -1.4261  1.9691
 6433SOL    HW220741   6.321   2.903   4.475  0.2515 -0.8401 -1.3370
 6434SOL     OW20742   5.794   2.241   6.427 -0.2075 -0.1975  0.6144
 6434SOL    HW120743   5.864   2.264   6.365 -0.2078 -0.2329  0.6011
 6434SOL    HW220744   5.791   2.316   6.486 -1.2067  0.5079 -0.2958
 6435SOL     OW20745   4.184   7.448  12.148 -0.2244  0.2123  0.3034
 6435SOL    HW120746   4.260   7.481  12.196 -1.6215  0.8724  2.1797
 6435SOL    HW220747   4.218   7.374  12.098  1.4120 -0.3258  2.0816
 6436SOL     OW20748   0.434   0.704  10.181  0.0220 -0.0872  0.1086
 6436SOL    HW120749   0.525   0.688  10.205 -0.6462  0.8843  4.0566
 6436SOL    HW220750   0.430   0.799  10.165  0.0345 -0.4329 -2.2373
 6437SOL     OW20751   5.038   4.493  11.136 -0.1714  0.9148 -0.5812
 6437SOL    HW120752   5.029   4.405  11.100 -1.8807  0.6048  0.4739
 6437SOL    HW220753   5.048   4.550  11.059 -1.9218  0.0890 -1.4892
 6438SOL     OW20754   3.952   0.019   0.453 -0.7602 -1.0011  0.0297
 6438SOL    HW120755   3.973  -0.074   0.454  0.8615 -0.7083 -1.3420
 6438SOL    HW220756   3.941   0.043   0.545  0.0897 -2.2814  0.4804
 6439SOL     OW20757   6.586   3.175   4.389  0.2729 -0.4613  0.3952
 6439SOL    HW120758   6.656   3.190   4.452 -0.2663 -0.3660  0.9910
 6439SOL    HW220759   6.519   3.240   4.413  0.6063  0.4833 -1.1260
 6440SOL     OW20760   6.564   2.407   1.582 -0.1758  0.0819  0.3614
 6440SOL    HW120761   6.483   2.449   1.555  0.2655  0.4513 -0.4307
 6440SOL    HW220762   6.539   2.351   1.656 -1.1105  0.3184  0.2364
 6441SOL     OW20763   0.994   0.124  10.273 -0.4424  0.1406 -0.0009
 6441SOL    HW120764   0.962   0.081  10.352 -2.2125  1.1359 -0.1165
 6441SOL    HW220765   0.994   0.055  10.206  2.5602 -1.1158  1.1172
 6442SOL     OW20766   7.843   7.542   8.036 -0.3836 -0.0120  0.4212
 6442SOL    HW120767   7.911   7.476   8.021 -0.9367 -0.7982  1.2842
 6442SOL    HW220768   7.826   7.578   7.949  0.8476 -0.0755  0.1264
 6443SOL     OW20769   2.061   7.776   2.971  0.4181 -0.8170  0.6722
 6443SOL    HW120770   2.141   7.827   2.987 -0.2422  1.3690 -2.1314
 6443SOL    HW220771   1.994   7.820   3.022 -0.0846  1.1858 -1.5026
 6444SOL     OW20772   3.863   3.046   0.312  0.1520  0.2384 -0.3931
 6444SOL    HW120773   3.926   2.977   0.293 -0.8009 -0.9633  0.6042
 6444SOL    HW220774   3.867   3.058   0.407  0.0077  1.2809 -0.4974
 6445SOL     OW20775   7.788   2.585   2.056 -0.0774  0.1159 -0.4742
 6445SOL    HW120776   7.762   2.509   2.109 -1.0421 -0.6787 -1.9946
 6445SOL    HW220777   7.781   2.659   2.116 -1.2481 -0.7209  0.4841
 6446SOL     OW20778   4.030   0.565   4.631 -0.2745 -0.3499  0.0906
 6446SOL    HW120779   4.084   0.493   4.598  1.8692  0.6642  1.1959
 6446SOL    HW220780   3.990   0.530   4.710 -1.1005 -1.0268 -0.5998
 6447SOL     OW20781   6.779   0.985  10.305 -0.7390  0.1743 -0.1620
 6447SOL    HW120782   6.827   0.902  10.314  0.9992  0.9355 -1.6617
 6447SOL    HW220783   6.816   1.041  10.374 -0.9800  0.1156  0.0163
 6448SOL     OW20784   7.954   7.487   1.716 -0.3523  0.4360 -0.1031
 6448SOL    HW120785   7.969   7.415   1.777  0.7732  0.9245  0.2158
 6448SOL    HW220786   7.959   7.566   1.770  0.9985  0.9006 -0.8704
 6449SOL     OW20787   2.444   6.952   6.012 -0.2401 -0.0237  0.5398
 6449SOL    HW120788   2.383   6.923   5.945 -1.4284  1.0281  1.1130
 6449SOL    HW220789   2.465   6.873   6.062 -0.4820 -0.5453 -0.1730
 6450SOL     OW20790   1.143   5.070   0.625  0.7452  0.0172 -0.1270
 6450SOL    HW120791   1.098   4.986   0.622  2.3674 -0.8795 -0.4301
 6450SOL    HW220792   1.124   5.104   0.713  2.5552 -2.1549  1.2278
 6451SOL     OW20793   6.255   3.419   5.598 -0.5500  0.1244 -0.0370
 6451SOL    HW120794   6.350   3.429   5.609 -0.7784  0.9549  1.4796
 6451SOL    HW220795   6.217   3.492   5.647 -2.0220 -1.3648  1.1856
 6452SOL     OW20796   6.732   2.596  10.216  0.1703 -0.2443  0.1100
 6452SOL    HW120797   6.815   2.549  10.225  0.1128 -0.5647 -0.9911
 6452SOL    HW220798   6.758   2.686  10.199  0.2932 -0.3546 -0.2915
 6453SOL     OW20799   3.871   0.713   9.120  0.3145 -0.4767  0.1571
 6453SOL    HW120800   3.944   0.664   9.080  1.3564  0.2436  1.1365
 6453SOL    HW220801   3.906   0.747   9.202 -0.2711  2.1861 -0.6070
 6454SOL     OW20802   6.425   1.162   0.307 -0.1841  0.0092 -0.2089
 6454SOL    HW120803   6.508   1.125   0.277 -0.7936 -0.1892 -1.7442
 6454SOL    HW220804   6.399   1.222   0.237 -1.3089  0.1091  0.2781
 6455SOL     OW20805   5.798   7.444   2.313 -0.0286 -0.2437 -0.8657
 6455SOL    HW120806   5.865   7.437   2.244  1.5814  0.5969  0.5487
 6455SOL    HW220807   5.830   7.513   2.371  0.1767 -2.7489  2.2815
 6456SOL     OW20808   3.163   5.856   4.233 -0.0425 -0.0295  0.2827
 6456SOL    HW120809   3.186   5.928   4.293  0.3157  0.5339 -0.5123
 6456SOL    HW220810   3.236   5.852   4.171  0.6594 -2.0812  1.1831
 6457SOL     OW20811   2.203   6.826   1.166 -0.1329 -0.3380 -0.4426
 6457SOL    HW120812   2.178   6.738   1.194  0.6336 -0.2551  0.5463
 6457SOL    HW220813   2.126   6.880   1.186  0.0424 -0.4615  0.6386
 6458SOL     OW20814   5.386   7.642   8.471 -0.3355 -0.2778  0.1195
 6458SOL    HW120815   5.395   7.736   8.456 -1.7290 -0.2163 -0.4297
 6458SOL    HW220816   5.304   7.633   8.520 -0.3099 -1.2224  0.0122
 6459SOL     OW20817   7.244   0.592   1.695  0.1810 -0.4136  0.6326
 6459SOL    HW120818   7.295   0.666   1.663  1.0862 -0.4648  1.8602
 6459SOL    HW220819   7.310   0.533   1.733 -0.8250 -0.1820  2.8739
 6460SOL     OW20820   2.545   5.957   2.723 -0.4256  0.2869  0.2819
 6460SOL    HW120821   2.592   5.942   2.804 -0.3065 -0.7728  0.0314
 6460SOL    HW220822   2.463   5.908   2.733  0.2698 -1.1705 -0.8360
 6461SOL     OW20823   5.747   7.542  11.468 -0.2068 -0.0434 -0.1829
 6461SOL    HW120824   5.666   7.589  11.488 -0.0760  0.3762 -0.6241
 6461SOL    HW220825   5.749   7.539  11.372  1.6657  2.3901 -0.3081
 6462SOL     OW20826   2.594   0.538   1.545 -0.3594 -0.4740  0.0750
 6462SOL    HW120827   2.599   0.622   1.591 -1.2728 -0.1638 -0.3654
 6462SOL    HW220828   2.653   0.548   1.471  1.6024 -1.1951  1.4600
 6463SOL     OW20829   4.533   4.370   8.704 -0.5318 -0.0774  0.2019
 6463SOL    HW120830   4.522   4.369   8.609 -3.5721 -1.5240  0.4462
 6463SOL    HW220831   4.513   4.460   8.730  1.0795  0.5249 -0.5364
 6464SOL     OW20832   2.550   5.811   1.270  0.2300 -0.5612 -0.1678
 6464SOL    HW120833   2.474   5.778   1.224 -0.6452 -0.8669  1.4368
 6464SOL    HW220834   2.549   5.766   1.354  0.4969  1.5774  1.0541
 6465SOL     OW20835   7.153   6.816   8.746 -0.3081  0.3604  0.0125
 6465SOL    HW120836   7.068   6.784   8.778 -0.0753  0.0308  0.2997
 6465SOL    HW220837   7.194   6.739   8.706  0.0604  0.4105  0.2956
 6466SOL     OW20838   6.095   5.319   2.716 -0.4614  0.1388  0.6926
 6466SOL    HW120839   6.086   5.384   2.646  2.4448 -1.6376 -1.5417
 6466SOL    HW220840   6.100   5.371   2.796  2.4375  2.8468 -1.0186
 6467SOL     OW20841   5.666   2.104   7.216  0.0602  0.0842  0.5284
 6467SOL    HW120842   5.587   2.152   7.193 -0.1454  0.6290  2.2281
 6467SOL    HW220843   5.725   2.171   7.252  0.8338 -0.5097  0.4042
 6468SOL     OW20844   2.308   0.961   9.098  0.3293 -0.4584 -0.2851
 6468SOL    HW120845   2.242   1.005   9.044 -1.8204  0.9961  3.1891
 6468SOL    HW220846   2.358   1.033   9.138 -0.1298 -1.2789  1.8876
 6469SOL     OW20847   6.016   5.083   9.479 -0.1073 -0.3356  0.6565
 6469SOL    HW120848   6.086   5.054   9.420 -0.5175 -0.2254  0.1104
 6469SOL    HW220849   6.030   5.031   9.558  0.1710 -0.8285  0.2967
 6470SOL     OW20850   7.450   7.117   7.167  0.2309 -0.6816 -0.0499
 6470SOL    HW120851   7.506   7.053   7.212  0.7322 -1.0917 -1.2049
 6470SOL    HW220852   7.401   7.159   7.237  2.0835 -0.2001  1.0243
 6471SOL     OW20853   6.462   2.200  12.333 -0.5654 -0.1799  0.0125
 6471SOL    HW120854   6.496   2.237  12.415  0.4305  2.2504 -1.3747
 6471SOL    HW220855   6.447   2.108  12.352 -0.2511  0.2736  2.8776
 6472SOL     OW20856   1.944   6.254  10.516  0.4134  0.2972  0.0890
 6472SOL    HW120857   1.852   6.275  10.499  0.8363  2.1793 -0.0416
 6472SOL    HW220858   1.979   6.233  10.429  0.0657 -0.7816  0.1820
 6473SOL     OW20859   4.746   1.379  12.011  0.2368 -0.1614  0.2232
 6473SOL    HW120860   4.677   1.324  12.049 -0.0727 -0.0055 -0.1083
 6473SOL    HW220861   4.706   1.465  12.001  0.2499 -0.2474 -0.6304
 6474SOL     OW20862   4.769   6.111   1.410  0.2111 -0.0878  0.2692
 6474SOL    HW120863   4.701   6.112   1.478 -0.7806 -2.3958 -0.5824
 6474SOL    HW220864   4.759   6.026   1.368  3.3462 -0.3102 -0.2435
 6475SOL     OW20865   5.990   3.138  12.276  0.4127 -0.3181  0.3250
 6475SOL    HW120866   5.977   3.075  12.205 -0.0641 -2.1031  1.8993
 6475SOL    HW220867   6.059   3.099  12.330  0.1582  0.5358  1.2973
 6476SOL     OW20868   4.436   4.851   5.441 -0.1557  0.0630  0.1075
 6476SOL    HW120869   4.497   4.891   5.379  2.2487 -2.4391  0.6756
 6476SOL    HW220870   4.423   4.762   5.408  0.3783 -1.0059  2.5883
 6477SOL     OW20871   6.552   6.624  11.184  0.0608  0.1547 -0.4764
 6477SOL    HW120872   6.543   6.532  11.209  0.9692 -0.4464 -2.2008
 6477SOL    HW220873   6.635   6.629  11.137 -0.8011  1.4817 -1.9917
 6478SOL     OW20874   0.679   2.337  12.086  0.6613  0.4579 -0.1122
 6478SOL    HW120875   0.653   2.250  12.116  1.4482 -0.7604 -2.6588
 6478SOL    HW220876   0.738   2.369  12.154 -0.3325 -0.5803  1.3058
 6479SOL     OW20877   7.473   3.601  10.113  0.0930  0.4317  0.3198
 6479SOL    HW120878   7.396   3.656  10.097  0.4075  0.5103 -1.0185
 6479SOL    HW220879   7.547   3.662  10.111  0.5753 -0.1458 -2.4268
 6480SOL     OW20880   3.343   0.168   9.593 -0.6036  0.2427  0.0884
 6480SOL    HW120881   3.421   0.205   9.635  1.3148 -1.7265 -1.5058
 6480SOL    HW220882   3.301   0.118   9.662  0.7795 -0.4464  0.4727
 6481SOL     OW20883   5.172   3.384   2.651  0.0616  0.3653  0.3741
 6481SOL    HW120884   5.148   3.319   2.585  1.2191 -1.3589  1.5690
 6481SOL    HW220885   5.145   3.345   2.734  1.6222  0.9567  1.2018
 6482SOL     OW20886   2.016   1.642   2.516 -0.1726  0.4813  0.6697
 6482SOL    HW120887   2.058   1.727   2.534  1.9759 -0.4581  0.3473
 6482SOL    HW220888   2.037   1.624   2.425 -0.6420 -0.4073  0.7298
 6483SOL     OW20889   0.256   4.922   4.033  0.7745  0.3509 -0.0126
 6483SOL    HW120890   0.204   4.861   3.981  0.7430  1.9309 -1.9555
 6483SOL    HW220891   0.347   4.895   4.018  0.7587  0.7373 -0.8182
 6484SOL     OW20892   7.964   4.590   5.083  0.4274  0.8522 -0.4576
 6484SOL    HW120893   8.010   4.507   5.080 -1.6642 -0.4405  0.8652
 6484SOL    HW220894   8.028   4.654   5.052  2.7230 -0.9445  0.2851
 6485SOL     OW20895   7.477   2.767   9.906  0.9480 -0.3873 -0.1326
 6485SOL    HW120896   7.443   2.855   9.925 -1.5550 -1.2427 -0.3338
 6485SOL    HW220897   7.543   2.752   9.974 -1.6280  0.0169  2.6756
 6486SOL     OW20898   1.020   4.055   6.015 -0.2310 -0.3624 -0.2031
 6486SOL    HW120899   1.035   4.007   5.934  0.7865  2.0117 -1.5368
 6486SOL    HW220900   1.099   4.108   6.026 -0.5257 -0.3164  2.1447
 6487SOL     OW20901   5.752   7.902   8.985  0.2493  0.3807 -0.1504
 6487SOL    HW120902   5.736   7.867   9.073 -0.3298  2.1526  0.4831
 6487SOL    HW220903   5.830   7.854   8.955 -0.0816 -0.9145  0.9362
 6488SOL     OW20904   0.682   6.653  10.786  0.4171  0.3159 -0.3667
 6488SOL    HW120905   0.683   6.659  10.691 -2.9046  0.4903 -0.4873
 6488SOL    HW220906   0.708   6.740  10.816  0.5464  0.5386 -1.1169
 6489SOL     OW20907   3.363   7.129   1.492 -0.0857 -0.4548  0.8345
 6489SOL    HW120908   3.277   7.119   1.533 -0.4784  2.7927  0.9877
 6489SOL    HW220909   3.425   7.105   1.561 -0.8174  0.4427  1.8260
 6490SOL     OW20910   0.249   2.988   1.732  0.0011 -0.3396 -0.3537
 6490SOL    HW120911   0.334   2.959   1.762  0.4903  0.2006 -1.1752
 6490SOL    HW220912   0.208   2.909   1.697 -1.0434 -1.2471  2.6008
 6491SOL     OW20913   0.710   5.268   2.100  0.0612 -0.0074  0.1580
 6491SOL    HW120914   0.772   5.237   2.166  0.7884  0.1285 -0.4476
 6491SOL    HW220915   0.754   5.341   2.058 -0.3717 -0.1206 -0.5122
 6492SOL     OW20916   4.681   0.319   7.893  0.4029  0.2938 -0.1929
 6492SOL    HW120917   4.611   0.279   7.841  0.4791 -0.5261  0.3161
 6492SOL    HW220918   4.761   0.301   7.843  0.2421  1.4050 -0.8752
 6493SOL     OW20919   7.408   0.588  12.039  0.3995  0.0334 -0.3275
 6493SOL    HW120920   7.357   0.514  12.074  0.5880  0.2945  0.5206
 6493SOL    HW220921   7.359   0.617  11.963 -0.6479  0.1726  0.3772
 6494SOL     OW20922   7.678   3.250   3.989  0.0525  0.5344  0.3903
 6494SOL    HW120923   7.657   3.341   4.005 -0.2330  0.7238 -0.9262
 6494SOL    HW220924   7.660   3.237   3.896  0.0734 -0.8666  0.5558
 6495SOL     OW20925   7.115   4.029  12.101 -0.2207  0.4540 -0.9051
 6495SOL    HW120926   7.068   4.092  12.154 -0.2144  1.0883 -1.6296
 6495SOL    HW220927   7.187   4.079  12.062  0.4337 -0.2517 -0.6451
 6496SOL     OW20928   2.700   5.506   4.812 -0.1530 -0.4395  0.0656
 6496SOL    HW120929   2.635   5.516   4.742 -0.4608 -1.4906  0.1845
 6496SOL    HW220930   2.776   5.467   4.769  1.5474  3.2185 -0.6771
 6497SOL     OW20931   5.718   1.224   2.029  0.0648  0.2711 -0.2607
 6497SOL    HW120932   5.730   1.200   1.937  1.3101 -1.9363  0.4024
 6497SOL    HW220933   5.806   1.233   2.063 -0.3541 -0.2315  1.0139
 6498SOL     OW20934   7.203   3.156   9.671  0.3441  0.7976  0.3734
 6498SOL    HW120935   7.112   3.162   9.699  0.0909  3.6570 -0.7616
 6498SOL    HW220936   7.201   3.094   9.598 -0.7971  1.1726  0.0573
 6499SOL     OW20937   6.446   2.479   5.516 -0.0826 -0.3855  0.8296
 6499SOL    HW120938   6.526   2.456   5.562 -0.1948  0.0339  1.2387
 6499SOL    HW220939   6.376   2.465   5.580 -0.3081 -0.4813  0.5638
 6500SOL     OW20940   6.398   2.800   0.861  0.3219  0.2522 -0.2623
 6500SOL    HW120941   6.350   2.758   0.789 -1.0117  0.3089  0.5649
 6500SOL    HW220942   6.452   2.866   0.818  0.2911 -0.3786 -1.3069
 6501SOL     OW20943   5.807   6.177   6.943 -0.9902  0.0318  0.0284
 6501SOL    HW120944   5.894   6.160   6.908 -0.5939  2.6224 -0.4904
 6501SOL    HW220945   5.752   6.194   6.866 -0.9410  2.3404  0.4329
 6502SOL     OW20946   5.715   1.775   1.247  0.8640 -0.0763 -0.2129
 6502SOL    HW120947   5.681   1.707   1.305  1.1790 -2.1851 -2.3798
 6502SOL    HW220948   5.810   1.765   1.252  0.9377  0.6268 -0.1144
 6503SOL     OW20949   5.547   5.716   0.810  0.0859 -0.5663 -0.2088
 6503SOL    HW120950   5.581   5.805   0.803  0.5978 -0.8488 -1.7198
 6503SOL    HW220951   5.494   5.717   0.889 -1.4040  1.5809 -1.1343
 6504SOL     OW20952   1.650   2.960   1.541  0.2343 -0.3407 -0.2908
 6504SOL    HW120953   1.590   2.960   1.616 -0.3892  2.0253 -0.7222
 6504SOL    HW220954   1.663   2.867   1.521 -1.7228 -0.9653  1.0408
 6505SOL     OW20955   6.462   7.304   6.318 -0.3411  0.3390  0.0776
 6505SOL    HW120956   6.427   7.266   6.238 -2.1492  2.7873 -0.4050
 6505SOL    HW220957   6.483   7.394   6.295  0.1211  0.7910  2.0813
 6506SOL     OW20958   2.749   1.491  11.085  0.2483 -0.2494 -0.3561
 6506SOL    HW120959   2.680   1.538  11.039 -0.2253  0.3611  0.9460
 6506SOL    HW220960   2.731   1.504  11.178  0.2891 -2.7127  0.0894
 6507SOL     OW20961   5.920   1.754   2.351 -0.0075 -0.7883  0.5645
 6507SOL    HW120962   5.871   1.759   2.433  0.7259  1.2912  0.9200
 6507SOL    HW220963   5.886   1.825   2.297  2.7424  1.0243  0.9749
 6508SOL     OW20964   5.664   7.116   3.443  0.1199  0.0119  0.4856
 6508SOL    HW120965   5.661   7.160   3.358 -0.0750  1.0059  0.9843
 6508SOL    HW220966   5.731   7.048   3.433  0.0533  0.0744 -0.4728
 6509SOL     OW20967   2.972   0.619  11.002 -0.0761  0.3989 -0.3946
 6509SOL    HW120968   3.066   0.602  10.999  0.1532  0.5168  2.7622
 6509SOL    HW220969   2.963   0.710  10.973  0.4920 -0.2056 -2.6108
 6510SOL     OW20970   6.480   0.535   9.388 -0.1849 -0.7034  0.1567
 6510SOL    HW120971   6.418   0.538   9.315  2.0722 -0.2632 -1.9009
 6510SOL    HW220972   6.538   0.462   9.366  1.6387  0.5764  0.5197
 6511SOL     OW20973   6.283   5.149   0.155  0.9482 -0.7518  0.4118
 6511SOL    HW120974   6.327   5.139   0.071  2.0742 -1.0549  1.0081
 6511SOL    HW220975   6.353   5.139   0.220  0.2372  0.1712  1.3651
 6512SOL     OW20976   6.571   4.028   0.316  0.4528  0.7170  0.5186
 6512SOL    HW120977   6.599   4.049   0.228 -2.0615  2.5618  0.0357
 6512SOL    HW220978   6.498   3.966   0.304  1.2256 -0.4131  1.4321
 6513SOL     OW20979   5.211   6.034  11.330  0.1371 -0.4623  0.1343
 6513SOL    HW120980   5.203   5.988  11.247 -0.9256  1.4930 -0.9167
 6513SOL    HW220981   5.281   6.097  11.316  0.1320 -0.2928  0.8193
 6514SOL     OW20982   7.176   5.546   3.116 -0.2882  0.4620  0.4082
 6514SOL    HW120983   7.200   5.501   3.197  1.0047  1.7745  0.8102
 6514SOL    HW220984   7.255   5.594   3.091 -0.7751  0.3742 -1.4483
 6515SOL     OW20985   0.232   4.144  12.358 -0.7189  0.0747  0.3269
 6515SOL    HW120986   0.283   4.225  12.361  0.9001 -0.8371 -0.9651
 6515SOL    HW220987   0.219   4.127  12.265  0.6808 -2.1438  0.4737
 6516SOL     OW20988   3.976   5.316   9.276  0.4211 -0.0857 -0.9073
 6516SOL    HW120989   3.912   5.301   9.347  1.1727  1.9956  0.3159
 6516SOL    HW220990   4.010   5.230   9.255  0.2249 -0.7775  1.3756
 6517SOL     OW20991   1.472   2.656   7.465  0.2753  0.2612 -0.1620
 6517SOL    HW120992   1.514   2.718   7.405 -0.0655  0.9211  0.2737
 6517SOL    HW220993   1.379   2.664   7.446  0.2307 -0.1330 -0.1137
 6518SOL     OW20994   1.958   5.579   3.385  0.2355 -0.0854  0.6835
 6518SOL    HW120995   1.882   5.566   3.442  0.0044 -0.9592  0.2080
 6518SOL    HW220996   2.017   5.508   3.408  0.2994 -0.2260  0.1024
 6519SOL     OW20997   2.928   4.114   8.893 -0.5906 -0.1505  0.4098
 6519SOL    HW120998   2.966   4.153   8.972 -1.1593 -0.2565  0.7384
 6519SOL    HW220999   2.843   4.158   8.883 -0.3875  0.0867 -0.3202
 6520SOL     OW21000   1.260   6.287   7.364 -0.5464 -0.0758 -0.6992
 6520SOL    HW121001   1.257   6.382   7.354 -1.9567 -0.0223 -0.0496
 6520SOL    HW221002   1.168   6.260   7.363 -0.1595 -1.4661 -1.0939
 6521SOL     OW21003   2.745   7.277   6.458 -0.0703  0.1559  0.2005
 6521SOL    HW121004   2.780   7.353   6.505  0.0920  0.4724 -0.4318
 6521SOL    HW221005   2.741   7.304   6.367  1.0428 -0.9693 -0.2042
 6522SOL     OW21006   3.406   0.851   9.439 -1.0859  0.2859  0.4704
 6522SOL    HW121007   3.347   0.926   9.447  0.1410  1.2091  1.3870
 6522SOL    HW221008   3.492   0.885   9.465 -0.0691 -0.9259 -1.0710
 6523SOL     OW21009   1.851   6.832   5.469  0.5202 -0.1088  0.2205
 6523SOL    HW121010   1.918   6.898   5.452  0.4812  0.1093  0.8681
 6523SOL    HW221011   1.898   6.749   5.467  0.4393 -0.1405 -1.3219
 6524SOL     OW21012   0.064   7.033   8.095  0.0883  0.7405  0.2699
 6524SOL    HW121013   0.111   7.069   8.171  1.4790  0.1444 -0.2784
 6524SOL    HW221014   0.133   6.997   8.040 -1.1144 -1.1621 -0.0458
 6525SOL     OW21015   0.758   6.721   0.787  0.2065  0.2873  0.7680
 6525SOL    HW121016   0.834   6.710   0.730  0.2630  0.1243  0.8759
 6525SOL    HW221017   0.714   6.800   0.753 -0.5191 -0.5733 -0.3679
 6526SOL     OW21018   5.867   5.223  11.643 -0.4490 -0.4942  0.7100
 6526SOL    HW121019   5.789   5.200  11.592  0.7838 -0.2953 -1.4165
 6526SOL    HW221020   5.927   5.149  11.629  0.4717  0.2501  0.6285
 6527SOL     OW21021   6.314   1.268   8.528  0.0729  0.1588 -0.7455
 6527SOL    HW121022   6.315   1.343   8.469 -0.0494  0.1765 -0.7259
 6527SOL    HW221023   6.395   1.221   8.510  0.4284  0.6138 -0.3408
 6528SOL     OW21024   3.978   1.121   5.752  0.8568 -0.5293  0.0925
 6528SOL    HW121025   3.912   1.053   5.768  0.0046  0.6625  1.9774
 6528SOL    HW221026   4.055   1.092   5.801  1.1760 -1.0855 -0.7225
 6529SOL     OW21027   0.608   6.437   2.825 -0.1306  0.1919 -0.0551
 6529SOL    HW121028   0.643   6.385   2.897  0.0134 -0.0376 -0.2888
 6529SOL    HW221029   0.660   6.411   2.749 -2.2113 -1.8013 -0.9166
 6530SOL     OW21030   4.656   3.965   5.812 -0.6039 -0.4731  0.1911
 6530SOL    HW121031   4.679   3.874   5.792  0.8027 -0.0980 -0.0249
 6530SOL    HW221032   4.706   3.985   5.891 -0.4161  0.2996 -0.1192
 6531SOL     OW21033   1.373   6.137   8.876 -0.0402  0.5834 -0.1721
 6531SOL    HW121034   1.289   6.109   8.841  0.0065  0.9948 -0.6283
 6531SOL    HW221035   1.352   6.177   8.960 -0.0432 -1.3256  0.7894
 6532SOL     OW21036   3.088   1.473  11.240  0.5857  0.3575 -0.4467
 6532SOL    HW121037   3.127   1.439  11.159 -0.2659 -0.3694 -0.5777
 6532SOL    HW221038   3.087   1.568  11.228  2.9396  0.4748 -0.1117
 6533SOL     OW21039   1.440   6.213   1.512  0.2391 -0.1230 -0.1715
 6533SOL    HW121040   1.459   6.290   1.566 -0.8144  0.7846 -1.0564
 6533SOL    HW221041   1.426   6.248   1.424 -1.8994 -1.1221 -0.2768
 6534SOL     OW21042   1.361   5.274  10.811  0.0367 -0.0682 -0.6854
 6534SOL    HW121043   1.333   5.182  10.810  0.4675 -0.1941 -1.7380
 6534SOL    HW221044   1.317   5.311  10.888  1.6084 -1.6979  1.0854
 6535SOL     OW21045   0.367   5.820   2.385 -0.4498 -0.2194 -0.1601
 6535SOL    HW121046   0.339   5.770   2.308  0.9141 -1.8646  0.3355
 6535SOL    HW221047   0.322   5.904   2.377 -0.9429 -0.6289 -2.3311
 6536SOL     OW21048   6.458   6.038   9.760  0.4726  0.4611 -0.5137
 6536SOL    HW121049   6.390   6.048   9.693 -0.9135  1.1977  0.9511
 6536SOL    HW221050   6.519   6.110   9.743 -0.5272  1.3906 -0.2491
 6537SOL     OW21051   0.714   2.216   9.308 -0.4878 -0.3087 -0.2435
 6537SOL    HW121052   0.778   2.254   9.248 -1.3451  0.6902 -0.5453
 6537SOL    HW221053   0.745   2.242   9.395 -1.1535  1.2551 -0.4533
 6538SOL     OW21054   0.721   3.502   6.585  0.8306 -0.2087  0.3708
 6538SOL    HW121055   0.795   3.549   6.625  0.6823 -0.5179  1.0153
 6538SOL    HW221056   0.733   3.411   6.612 -0.0642 -0.1763  0.9042
 6539SOL     OW21057   4.042   4.683   2.283  0.2027 -0.8616 -0.4632
 6539SOL    HW121058   4.094   4.665   2.361  0.3669 -0.2206 -0.4209
 6539SOL    HW221059   3.968   4.736   2.315  0.4699 -0.2765 -0.7916
 6540SOL     OW21060   2.284   3.694  10.675 -0.3979 -0.4037 -0.2432
 6540SOL    HW121061   2.276   3.784  10.707  0.5012 -0.6908  0.8887
 6540SOL    HW221062   2.235   3.693  10.593  2.9449  2.2444 -2.5971
 6541SOL     OW21063   6.638   6.736   4.215  0.6874  0.5182  0.5093
 6541SOL    HW121064   6.643   6.779   4.300  0.0362 -0.9334  1.3240
 6541SOL    HW221065   6.689   6.656   4.225 -1.3904 -0.9200  0.3863
 6542SOL     OW21066   5.475   5.608   5.719  0.3866  0.1303  0.5226
 6542SOL    HW121067   5.395   5.569   5.685 -1.2865  1.7314  2.3855
 6542SOL    HW221068   5.486   5.688   5.668  2.4523 -1.3778 -1.6214
 6543SOL     OW21069   3.857   4.723   1.750  0.1321 -0.0823  0.1435
 6543SOL    HW121070   3.796   4.716   1.824  0.2876  0.0147  0.2801
 6543SOL    HW221071   3.825   4.658   1.687  0.3196 -0.5576  0.5232
 6544SOL     OW21072   7.101   2.359   6.560 -0.0403  0.3651  0.0131
 6544SOL    HW121073   7.021   2.354   6.612 -0.5855  1.0674 -0.7219
 6544SOL    HW221074   7.157   2.290   6.594  0.5921  2.2173  3.0823
 6545SOL     OW21075   3.397   0.406   9.127 -0.4362  0.5395  0.2805
 6545SOL    HW121076   3.349   0.344   9.182  0.3197 -0.7283 -0.4372
 6545SOL    HW221077   3.369   0.493   9.157 -0.5398 -0.1195  2.2118
 6546SOL     OW21078   7.517   5.767   6.786  0.0909  0.1860  0.1739
 6546SOL    HW121079   7.536   5.692   6.728  1.4276  0.4197  0.2874
 6546SOL    HW221080   7.445   5.736   6.841 -0.7599 -0.2887 -1.1431
 6547SOL     OW21081   2.080   2.256   5.169 -0.0317 -0.1878  0.0115
 6547SOL    HW121082   2.151   2.283   5.110 -0.8435  0.4046 -0.7286
 6547SOL    HW221083   2.055   2.337   5.214 -0.1981 -0.4027  0.3083
 6548SOL     OW21084   5.119   2.839   2.965  0.0791  0.7143  0.5465
 6548SOL    HW121085   5.177   2.879   3.028 -0.5462  1.5766  0.5907
 6548SOL    HW221086   5.175   2.782   2.913  0.3676 -1.2825  2.8635
 6549SOL     OW21087   6.818   4.905   4.182 -0.1312 -0.3061 -0.4904
 6549SOL    HW121088   6.836   4.977   4.243 -1.3335 -0.7750  0.4745
 6549SOL    HW221089   6.823   4.827   4.236 -1.4005 -0.7238 -0.9279
 6550SOL     OW21090   0.626   0.417   6.441  0.2040 -0.4151  0.2749
 6550SOL    HW121091   0.675   0.489   6.402 -1.2585  0.4390 -0.0490
 6550SOL    HW221092   0.664   0.338   6.401 -0.7702  0.3708 -2.4708
 6551SOL     OW21093   6.472   7.773   8.460  0.0042  0.1787  0.8093
 6551SOL    HW121094   6.510   7.854   8.429 -2.1858  1.0390  0.1411
 6551SOL    HW221095   6.388   7.767   8.414 -0.2381 -2.0777  1.4185
 6552SOL     OW21096   6.531   4.127   9.834  0.2208  0.2047  0.0465
 6552SOL    HW121097   6.531   4.200   9.772 -1.8336  0.0516 -0.2138
 6552SOL    HW221098   6.439   4.102   9.842  0.5375 -0.4756  2.3648
 6553SOL     OW21099   3.545   7.288   1.266  0.1557 -0.4420  0.0346
 6553SOL    HW121100   3.498   7.277   1.349  0.5397  1.8205  0.6143
 6553SOL    HW221101   3.637   7.297   1.291  0.6704 -2.5544 -0.9083
 6554SOL     OW21102   2.465   5.254   4.244  0.0759 -0.6810 -0.2321
 6554SOL    HW121103   2.560   5.249   4.259  0.4208  0.3497 -1.8003
 6554SOL    HW221104   2.442   5.169   4.208  0.6311 -0.5708 -0.8735
 6555SOL     OW21105   7.740   5.220   5.484  0.2676 -0.4224 -0.3853
 6555SOL    HW121106   7.741   5.126   5.506  0.6709 -0.4359 -0.4513
 6555SOL    HW221107   7.818   5.255   5.526 -0.3050  0.0469  0.3237
 6556SOL     OW21108   2.263   5.000   8.453  0.0210 -0.3697 -0.3497
 6556SOL    HW121109   2.182   4.966   8.414  0.3794  0.0081 -1.4517
 6556SOL    HW221110   2.324   4.927   8.451  0.2331 -0.1796 -1.0866
 6557SOL     OW21111   1.733   2.517  10.849  0.2669  0.0364 -0.0413
 6557SOL    HW121112   1.790   2.574  10.797 -0.4729  0.0389 -0.8783
 6557SOL    HW221113   1.785   2.496  10.927  1.7172 -0.5688 -1.1035
 6558SOL     OW21114   2.396   5.831  10.677 -0.2361  0.1443  0.1278
 6558SOL    HW121115   2.444   5.780  10.612  0.1283  0.8071 -0.1322
 6558SOL    HW221116   2.388   5.772  10.752 -0.0279 -0.3768 -0.2542
 6559SOL     OW21117   7.781   5.700   7.447  0.5919 -0.1407 -0.3102
 6559SOL    HW121118   7.776   5.716   7.541 -0.8847 -1.3228 -0.1612
 6559SOL    HW221119   7.740   5.777   7.407  0.2092 -0.1515  0.0572
 6560SOL     OW21120   5.569   5.237   3.693  0.4968 -0.6531 -0.0856
 6560SOL    HW121121   5.614   5.186   3.625  3.0543  1.5042 -0.1770
 6560SOL    HW221122   5.618   5.218   3.773 -0.6454 -0.8820  0.5811
 6561SOL     OW21123   1.791   6.304   5.437  0.8821 -0.0281  0.1535
 6561SOL    HW121124   1.793   6.219   5.482 -0.0636 -0.8075 -1.2186
 6561SOL    HW221125   1.859   6.297   5.370  2.1108  1.0391  1.2207
 6562SOL     OW21126   7.688   4.196   1.602 -0.0828 -0.1218 -0.2150
 6562SOL    HW121127   7.755   4.246   1.557  3.3522 -3.6124  0.4037
 6562SOL    HW221128   7.672   4.120   1.545 -0.6497 -1.2428  1.3444
 6563SOL     OW21129   1.995   6.652   8.398  0.0972 -0.5691  0.3273
 6563SOL    HW121130   2.057   6.611   8.338  0.5708 -0.4329  0.7129
 6563SOL    HW221131   1.909   6.626   8.366  0.1809  1.5381 -1.9645
 6564SOL     OW21132   6.408   3.084   6.561 -0.0896  0.0202  0.3378
 6564SOL    HW121133   6.465   3.156   6.588 -1.5179  1.0400  0.7726
 6564SOL    HW221134   6.417   3.019   6.631 -0.0257  0.5031  0.7816
 6565SOL     OW21135   3.164   1.906   2.666  0.0373 -0.4563  0.4206
 6565SOL    HW121136   3.252   1.899   2.629 -0.1801  1.4527 -0.5909
 6565SOL    HW221137   3.137   1.996   2.647 -2.0718 -0.9428  0.8364
 6566SOL     OW21138   7.289   5.613   2.088  0.2581 -0.0854 -0.1397
 6566SOL    HW121139   7.345   5.536   2.101  0.0327 -0.3293 -0.5995
 6566SOL    HW221140   7.247   5.626   2.173  0.7580 -0.0971  0.1193
 6567SOL     OW21141   6.105   3.237   3.620 -0.3233  0.6720 -0.1536
 6567SOL    HW121142   6.151   3.317   3.646  0.1188  0.7537 -1.1465
 6567SOL    HW221143   6.040   3.223   3.689  0.5633  1.0753  0.7922
 6568SOL     OW21144   5.742   5.649   8.171 -0.3059  0.0839 -0.0530
 6568SOL    HW121145   5.677   5.637   8.102  0.7843  0.1837 -1.1368
 6568SOL    HW221146   5.787   5.730   8.147  0.7861 -0.4286  0.1865
 6569SOL     OW21147   6.978   6.197   6.674  0.3507 -0.0280  0.5763
 6569SOL    HW121148   6.951   6.205   6.583 -1.7880 -0.1261  1.1423
 6569SOL    HW221149   7.017   6.282   6.695 -0.3205  0.4556 -0.0845
 6570SOL     OW21150   5.782   4.151   7.581  0.1376  0.0912 -0.3841
 6570SOL    HW121151   5.804   4.060   7.596 -1.1509 -0.4732 -1.6209
 6570SOL    HW221152   5.769   4.189   7.668 -1.3702 -1.4686  0.1246
 6571SOL     OW21153   5.138   1.709  10.174  0.4390  0.1001 -0.1863
 6571SOL    HW121154   5.111   1.635  10.228 -0.9508 -0.5527 -1.7047
 6571SOL    HW221155   5.192   1.670  10.105 -0.9903  0.3492 -1.4807
 6572SOL     OW21156   4.783   1.980   5.421  0.3727 -0.1997 -0.0538
 6572SOL    HW121157   4.782   2.059   5.475  1.6090 -0.4087  0.3069
 6572SOL    HW221158   4.840   2.002   5.347 -0.2535 -0.3549 -0.5895
 6573SOL     OW21159   7.238   0.512   2.389 -0.1838  0.0585  0.4195
 6573SOL    HW121160   7.303   0.516   2.318 -0.0693  0.0238  0.5215
 6573SOL    HW221161   7.155   0.500   2.344 -0.1689  0.4947  0.2683
 6574SOL     OW21162   5.910   1.284   7.322  0.5776  0.3238  0.2785
 6574SOL    HW121163   6.004   1.289   7.342  1.1030 -0.0417 -1.8710
 6574SOL    HW221164   5.897   1.349   7.253 -0.4274 -0.6514 -0.4817
 6575SOL     OW21165   3.847   1.247   4.633 -0.8023  0.5461  0.1838
 6575SOL    HW121166   3.903   1.294   4.572 -1.4632 -0.1057 -0.9646
 6575SOL    HW221167   3.855   1.296   4.716 -0.8934  2.2371 -0.7526
 6576SOL     OW21168   5.301   2.896   2.307  0.1584 -0.0497 -0.2809
 6576SOL    HW121169   5.323   2.981   2.269 -0.6346  1.1229  1.6825
 6576SOL    HW221170   5.252   2.851   2.238  1.4119  0.6797 -1.6957
 6577SOL     OW21171   3.547   4.877  11.036  0.3203 -0.3783  0.1662
 6577SOL    HW121172   3.595   4.850  11.115 -0.7918  1.1365  1.4357
 6577SOL    HW221173   3.484   4.807  11.021 -0.2401 -0.1604  1.3589
 6578SOL     OW21174   2.368   2.003   4.366  0.1418 -0.1869  0.1818
 6578SOL    HW121175   2.412   2.001   4.451  2.2683  1.8151 -0.7636
 6578SOL    HW221176   2.422   1.948   4.309 -1.5208 -1.8904  0.1501
 6579SOL     OW21177   5.627   7.833   5.873  0.3906  0.0039  0.4111
 6579SOL    HW121178   5.657   7.888   5.945  0.2516 -0.5832  0.9228
 6579SOL    HW221179   5.542   7.799   5.902  0.1609  0.0564 -0.1823
 6580SOL     OW21180   7.807   3.934   6.156 -0.2475  0.3515  0.4384
 6580SOL    HW121181   7.785   3.915   6.064 -0.4624  2.4332  0.0172
 6580SOL    HW221182   7.825   4.028   6.157  2.0201 -0.0381  2.1070
 6581SOL     OW21183   4.613   4.881   3.040 -0.1913 -0.7015  0.0042
 6581SOL    HW121184   4.622   4.857   3.133 -1.7572 -0.5251  0.2278
 6581SOL    HW221185   4.696   4.856   3.001  0.2995 -1.2820  1.3550
 6582SOL     OW21186   1.917   4.884  12.044  0.0066 -0.3445  0.7802
 6582SOL    HW121187   1.961   4.949  11.989  0.5490 -1.4524 -0.1340
 6582SOL    HW221188   1.955   4.896  12.131 -0.9729  1.5381  1.0239
 6583SOL     OW21189   1.252   7.467   1.794 -0.0977  0.3288 -0.5705
 6583SOL    HW121190   1.334   7.505   1.763  0.0163 -0.5243 -1.3417
 6583SOL    HW221191   1.189   7.540   1.790  0.0283  0.3808 -2.3856
 6584SOL     OW21192   3.584   6.682   3.504 -0.0754  0.1594 -0.3588
 6584SOL    HW121193   3.562   6.727   3.585 -1.4963  0.6911 -1.0157
 6584SOL    HW221194   3.564   6.590   3.521  0.3642  0.1488  0.1312
 6585SOL     OW21195   7.181   1.927   2.036 -0.8309  0.1567  0.1928
 6585SOL    HW121196   7.148   1.971   2.114  0.0685 -0.9119  1.2100
 6585SOL    HW221197   7.270   1.960   2.026 -1.2028  0.9048 -0.8942
 6586SOL     OW21198   5.155   6.196   5.114  0.0617 -0.0145 -0.0192
 6586SOL    HW121199   5.228   6.171   5.171  1.7099 -0.3364 -2.1123
 6586SOL    HW221200   5.188   6.180   5.025 -2.3381  0.5118 -1.0912
 6587SOL     OW21201   7.445   5.266   3.976  0.0854 -0.1290  0.2044
 6587SOL    HW121202   7.492   5.322   3.915  1.6663 -0.9249  0.6497
 6587SOL    HW221203   7.430   5.185   3.928 -2.7754  0.7873 -0.6721
 6588SOL     OW21204   1.309   4.724   1.097  0.6332  0.1458 -0.3538
 6588SOL    HW121205   1.275   4.662   1.162  1.2720  0.9874  0.8123
 6588SOL    HW221206   1.308   4.675   1.014 -0.2030 -0.9443  0.2822
 6589SOL     OW21207   7.674   3.162   8.960  1.0311 -0.2851  0.1985
 6589SOL    HW121208   7.728   3.084   8.943 -1.4491 -1.8033 -1.2670
 6589SOL    HW221209   7.603   3.130   9.015  1.2303  1.5633  1.6452
 6590SOL     OW21210   0.921   5.972  11.890  0.0778  0.3360 -0.7238
 6590SOL    HW121211   0.865   6.031  11.940  0.8444  0.9662 -0.5891
 6590SOL    HW221212   0.868   5.893  11.878  0.1165 -0.1227  1.7185
 6591SOL     OW21213   2.785   7.199   7.580  0.4559 -0.5869 -0.5808
 6591SOL    HW121214   2.849   7.267   7.598  0.1175 -0.6091  0.8208
 6591SOL    HW221215   2.777   7.198   7.485  1.5179  0.3438 -0.6995
 6592SOL     OW21216   2.300   2.122   3.027  0.0561 -0.3322 -0.0229
 6592SOL    HW121217   2.252   2.187   2.976 -0.1822  1.5179  2.3798
 6592SOL    HW221218   2.392   2.148   3.018  0.0353 -0.1437  0.3165
 6593SOL     OW21219   2.098   4.792   6.270 -0.0151  0.4931  0.4403
 6593SOL    HW121220   2.158   4.717   6.273  0.8662  1.1822  0.4368
 6593SOL    HW221221   2.149   4.865   6.306 -1.5235  0.6460  2.4452
 6594SOL     OW21222   6.117   3.993   3.440 -0.1024  0.0399 -0.3989
 6594SOL    HW121223   6.112   3.899   3.421 -0.5320 -0.0355  0.0623
 6594SOL    HW221224   6.115   3.999   3.535 -0.0543  0.5179 -0.4231
 6595SOL     OW21225   5.550   1.625   1.757 -0.2772 -0.8096 -0.1832
 6595SOL    HW121226   5.519   1.713   1.735 -1.0141 -1.5310 -2.3079
 6595SOL    HW221227   5.559   1.581   1.672  2.0425 -2.1659  0.6922
 6596SOL     OW21228   4.948   4.708   7.956  0.2695 -0.1228 -0.0150
 6596SOL    HW121229   4.977   4.652   7.883  1.1210  0.4275 -0.1040
 6596SOL    HW221230   4.895   4.776   7.914  1.6584  0.8238 -0.2610
 6597SOL     OW21231   0.936   3.965   7.973 -0.6487 -0.1198 -0.0492
 6597SOL    HW121232   0.978   3.996   8.054  1.4960 -0.1201 -1.0744
 6597SOL    HW221233   1.004   3.911   7.931 -1.5881  0.1591 -2.0025
 6598SOL     OW21234   4.846   7.619   8.923  0.2902 -0.4313  0.1569
 6598SOL    HW121235   4.882   7.631   9.011  0.7365  0.4031 -0.1248
 6598SOL    HW221236   4.832   7.708   8.891 -1.0577 -0.7359 -0.1523
 6599SOL     OW21237   7.020   5.559   9.978  0.1992 -0.3738  0.3335
 6599SOL    HW121238   6.939   5.546  10.028  0.2183  0.5150  0.6263
 6599SOL    HW221239   7.000   5.526   9.890  0.1232 -1.8432  0.8820
 6600SOL     OW21240   7.740   4.537   6.377  0.1656 -0.6149 -0.0441
 6600SOL    HW121241   7.694   4.460   6.343  2.5318 -2.8161  1.3582
 6600SOL    HW221242   7.677   4.608   6.369 -1.8445 -2.4855 -2.2462
 6601SOL     OW21243   2.050   0.553   7.267  0.0730  0.4251  0.3232
 6601SOL    HW121244   1.997   0.491   7.316  0.5808  1.8913  2.9518
 6601SOL    HW221245   1.997   0.633   7.264  0.7761  0.8929  0.0056
 6602SOL     OW21246   1.785   1.729   6.299  0.6801 -0.5808 -0.3283
 6602SOL    HW121247   1.831   1.782   6.364  0.9256 -1.6784  0.4168
 6602SOL    HW221248   1.848   1.718   6.228 -0.1967  2.1722 -1.6907
 6603SOL     OW21249   7.779   6.655   0.486 -0.3264  0.1204  0.4022
 6603SOL    HW121250   7.746   6.742   0.509 -2.5283 -0.2574 -0.9939
 6603SOL    HW221251   7.826   6.669   0.404 -1.1425 -0.0614 -0.1066
 6604SOL     OW21252   5.056   1.375  11.037  0.1923  0.0515 -0.4593
 6604SOL    HW121253   5.089   1.434  11.104 -0.2571  1.5962 -1.5438
 6604SOL    HW221254   4.996   1.428  10.985  0.4727 -1.0989 -2.0482
 6605SOL     OW21255   2.091   6.159   6.321  0.2803 -0.0136 -0.1032
 6605SOL    HW121256   2.076   6.065   6.312  0.4224  0.0623 -1.2281
 6605SOL    HW221257   2.003   6.198   6.319  0.3240  0.1658 -3.5068
 6606SOL     OW21258   2.273   2.120   5.843  0.3352 -0.3014 -0.0289
 6606SOL    HW121259   2.292   2.053   5.777 -0.4616 -2.7709  2.0787
 6606SOL    HW221260   2.205   2.175   5.803  0.4600 -1.2098 -1.5647
 6607SOL     OW21261   5.971   3.833   0.595 -0.8645 -0.2192 -0.4034
 6607SOL    HW121262   5.980   3.901   0.529  1.1540 -0.3390 -0.2942
 6607SOL    HW221263   5.892   3.785   0.569 -0.0685 -0.3433 -2.7912
 6608SOL     OW21264   3.278   5.258  11.658  0.2082  0.4181 -0.1665
 6608SOL    HW121265   3.348   5.210  11.702  0.7038 -1.5453 -2.8382
 6608SOL    HW221266   3.201   5.244  11.714  0.7810 -2.0062  0.1494
 6609SOL     OW21267   4.386   2.532   6.084  0.8461  0.4248  0.0494
 6609SOL    HW121268   4.329   2.456   6.095  2.3145 -0.5464  1.3669
 6609SOL    HW221269   4.405   2.534   5.990  0.0828 -0.2973 -0.1277
 6610SOL     OW21270   3.625   6.793  10.716  0.1294  0.4188  0.1920
 6610SOL    HW121271   3.671   6.875  10.697 -1.4890  1.1080 -0.9972
 6610SOL    HW221272   3.690   6.724  10.700  1.3199  1.4208  0.5588
 6611SOL     OW21273   4.786   5.285   9.751  0.7290  0.3117 -0.6575
 6611SOL    HW121274   4.834   5.234   9.816  1.3255  0.3592 -1.0528
 6611SOL    HW221275   4.805   5.241   9.668 -0.2798  0.0620 -0.7745
 6612SOL     OW21276   6.303   5.617   4.243  0.2532 -0.4728 -0.0090
 6612SOL    HW121277   6.379   5.558   4.253 -0.4427 -1.1960  1.3848
 6612SOL    HW221278   6.247   5.572   4.180 -0.1206 -1.1794  0.7977
 6613SOL     OW21279   6.891   2.946   6.154 -0.2257  0.2981 -0.6072
 6613SOL    HW121280   6.856   3.024   6.109 -0.7723  0.4778  0.1235
 6613SOL    HW221281   6.824   2.923   6.218 -1.1148 -2.1115 -2.2814
 6614SOL     OW21282   3.591   1.895  11.393  0.1215  0.3780 -0.3749
 6614SOL    HW121283   3.675   1.930  11.362  1.5696 -1.1526  1.5674
 6614SOL    HW221284   3.615   1.837  11.465 -2.6329 -0.2346  0.1340
 6615SOL     OW21285   4.366   3.973   3.947  0.7107 -0.0718  0.0630
 6615SOL    HW121286   4.320   3.891   3.965 -1.7493  1.1574 -0.3041
 6615SOL    HW221287   4.298   4.039   3.944  2.6111  2.0008  0.1497
 6616SOL     OW21288   5.488   3.762   9.086  0.3750 -0.4720  0.1492
 6616SOL    HW121289   5.544   3.713   9.025 -0.0881  1.0613 -1.5875
 6616SOL    HW221290   5.534   3.844   9.101 -1.5425  1.0564 -1.7436
 6617SOL     OW21291   5.857   4.824   0.605  0.5554  0.4533  0.4849
 6617SOL    HW121292   5.857   4.904   0.659  3.8893  0.5378  0.5638
 6617SOL    HW221293   5.848   4.753   0.668 -1.1369  0.6772  0.5380
 6618SOL     OW21294   1.155   4.361   3.320 -0.4163  0.5284 -0.1916
 6618SOL    HW121295   1.209   4.388   3.246 -0.3864  1.1817  0.0632
 6618SOL    HW221296   1.065   4.367   3.287 -0.4127  1.0160 -0.1079
 6619SOL     OW21297   1.679   7.059   2.119  0.3506 -0.9271 -0.0165
 6619SOL    HW121298   1.598   7.089   2.160 -0.5001 -0.4361 -1.9480
 6619SOL    HW221299   1.691   7.116   2.044  2.6550 -0.8372  0.3425
 6620SOL     OW21300   4.236   0.045   0.421 -0.0351 -0.7187  0.4213
 6620SOL    HW121301   4.254  -0.041   0.383  0.5079 -0.9990  1.2759
 6620SOL    HW221302   4.171   0.085   0.362  2.9998  0.1784 -2.6054
 6621SOL     OW21303   2.702   4.245   9.411 -0.0490  0.1909 -0.5526
 6621SOL    HW121304   2.702   4.337   9.439  1.2351  0.4721 -1.3646
 6621SOL    HW221305   2.693   4.195   9.492 -1.9482  1.0218 -0.1969
 6622SOL     OW21306   1.058   6.923   7.225  0.1706 -0.0818  0.3230
 6622SOL    HW121307   1.154   6.926   7.219  0.1354  0.7204 -0.0521
 6622SOL    HW221308   1.029   6.893   7.139  0.0410  1.4366 -0.2084
 6623SOL     OW21309   7.480   1.475  10.771 -0.5208 -0.0471  0.0793
 6623SOL    HW121310   7.560   1.464  10.719 -1.0691  0.4150 -0.8905
 6623SOL    HW221311   7.465   1.389  10.809 -0.2615 -0.4807 -0.7698
 6624SOL     OW21312   0.295   2.254   5.127  0.1816  0.4096 -0.2251
 6624SOL    HW121313   0.388   2.273   5.138 -0.2062  1.4013  1.8050
 6624SOL    HW221314   0.252   2.339   5.136 -1.0339 -0.2791  0.9288
 6625SOL     OW21315   2.936   4.946   1.141 -0.2977 -0.2197 -0.0661
 6625SOL    HW121316   3.018   4.897   1.140 -0.0562  0.1756 -1.0931
 6625SOL    HW221317   2.868   4.880   1.151  0.0703 -0.6870 -0.6221
 6626SOL     OW21318   1.462   7.817  12.395 -0.1087  0.0565 -0.5462
 6626SOL    HW121319   1.473   7.795  12.488  0.5471 -1.4759 -0.9604
 6626SOL    HW221320   1.551   7.828  12.362 -0.3150 -0.1367 -1.1733
 6627SOL     OW21321   5.446   1.357   0.285 -0.0316  0.9194  0.3613
 6627SOL    HW121322   5.465   1.448   0.308 -1.9294  1.1359  1.2862
 6627SOL    HW221323   5.501   1.305   0.344 -1.0966  1.4884  1.8925
 6628SOL     OW21324   5.808   1.696   1.811 -0.0981 -0.4136  0.5044
 6628SOL    HW121325   5.850   1.655   1.735  0.9277  2.1673 -0.4218
 6628SOL    HW221326   5.717   1.665   1.806 -0.4928  0.8325 -2.7590
 6629SOL     OW21327   4.113   2.283   1.007  0.2298 -0.2592  0.3448
 6629SOL    HW121328   4.187   2.306   1.063  1.1119  3.6745 -2.0081
 6629SOL    HW221329   4.036   2.320   1.052  0.7123  1.4756 -0.1767
 6630SOL     OW21330   7.936   6.356  10.070  0.9159  0.7664  0.6978
 6630SOL    HW121331   8.001   6.314  10.126  0.9428 -0.4207 -0.1890
 6630SOL    HW221332   7.873   6.395  10.131  1.4983  0.4052  1.5475
 6631SOL     OW21333   7.638   3.865   4.678 -0.2658 -0.1028 -0.3026
 6631SOL    HW121334   7.658   3.944   4.729 -0.0566 -0.2229 -0.1998
 6631SOL    HW221335   7.569   3.893   4.617  0.5854  0.4457 -1.0305
 6632SOL     OW21336   2.552   3.875   9.096  0.0617 -0.0565 -0.3587
 6632SOL    HW121337   2.530   3.944   9.159 -0.0394 -0.5219  0.1250
 6632SOL    HW221338   2.504   3.899   9.017  0.6696  0.8680 -0.4643
 6633SOL     OW21339   6.563   5.830   6.110  0.2575 -0.4863 -0.0344
 6633SOL    HW121340   6.490   5.889   6.129 -0.6644 -1.6920  0.2612
 6633SOL    HW221341   6.601   5.865   6.029 -1.6605 -0.7484 -1.0929
 6634SOL     OW21342   2.078   4.080   7.871  0.1478 -0.5972  0.2768
 6634SOL    HW121343   2.040   4.153   7.919 -1.9901 -0.4985 -1.3995
 6634SOL    HW221344   2.009   4.014   7.870  1.4090 -1.9571  0.2759
 6635SOL     OW21345   1.093   7.808   7.769  0.1545  0.4970 -0.0909
 6635SOL    HW121346   1.143   7.742   7.818  1.6468  2.0204  0.5455
 6635SOL    HW221347   1.031   7.844   7.832 -0.8250 -0.4259 -0.5029
 6636SOL     OW21348   0.490   6.536   4.743 -0.2558 -0.4113  0.4745
 6636SOL    HW121349   0.465   6.461   4.689 -0.3691  0.6628 -1.0401
 6636SOL    HW221350   0.422   6.542   4.810 -1.0433 -0.8036 -0.2726
 6637SOL     OW21351   1.864   7.515   6.333 -0.3981  0.2519 -0.2907
 6637SOL    HW121352   1.852   7.443   6.271  1.2881 -0.1358 -0.2135
 6637SOL    HW221353   1.776   7.550   6.346 -1.0971 -1.0790 -1.1852
 6638SOL     OW21354   6.737   4.349   5.447 -0.0885 -0.6145 -0.5658
 6638SOL    HW121355   6.773   4.275   5.398 -2.3064 -0.5104 -2.5762
 6638SOL    HW221356   6.712   4.312   5.531  0.3323 -1.7840 -0.9341
 6639SOL     OW21357   6.341   0.430   9.173 -0.1094  0.0026  0.2959
 6639SOL    HW121358   6.390   0.351   9.150 -0.9467 -1.0152  1.8952
 6639SOL    HW221359   6.277   0.402   9.237 -0.1409  2.0807  1.2726
 6640SOL     OW21360   6.520   6.443  12.257  0.1699 -0.0072  0.3363
 6640SOL    HW121361   6.532   6.353  12.226 -2.2507  0.5753 -2.7534
 6640SOL    HW221362   6.595   6.491  12.221  0.2399 -0.3559  0.0148
 6641SOL     OW21363   2.360   2.625   1.756 -0.3094  0.9113 -0.2482
 6641SOL    HW121364   2.386   2.715   1.777  0.7904  0.3812  0.8000
 6641SOL    HW221365   2.409   2.604   1.677 -2.7490  2.1528 -2.2216
 6642SOL     OW21366   1.348   2.704   8.322 -0.1652  0.2103  0.3531
 6642SOL    HW121367   1.312   2.759   8.392 -1.5656 -0.1050 -0.0743
 6642SOL    HW221368   1.271   2.675   8.273  0.6080 -1.3984  0.0197
 6643SOL     OW21369   4.758   4.157  10.298  0.6000  0.3352  0.0923
 6643SOL    HW121370   4.842   4.158  10.251 -0.0752 -0.6113 -1.1957
 6643SOL    HW221371   4.782   4.137  10.389  1.8014  0.4548 -0.1761
 6644SOL     OW21372   0.764   1.660   9.140  0.1749  0.4576 -0.3963
 6644SOL    HW121373   0.681   1.673   9.187 -0.6279 -0.7095 -1.4307
 6644SOL    HW221374   0.803   1.747   9.136 -0.6842  0.9226  0.6785
 6645SOL     OW21375   5.921   2.428   5.594  0.3939  0.1692  0.2514
 6645SOL    HW121376   5.953   2.389   5.675 -0.7038 -0.0893  0.5844
 6645SOL    HW221377   5.831   2.455   5.615 -0.7434 -1.9512 -1.4935
 6646SOL     OW21378   3.912   2.480  11.091  0.4776 -0.6659 -0.7075
 6646SOL    HW121379   3.823   2.514  11.101  0.2301 -1.7548  1.5455
 6646SOL    HW221380   3.968   2.550  11.124  0.2303 -0.9988  0.4687
 6647SOL     OW21381   4.592   0.664   7.057 -0.0743  0.5538 -0.4368
 6647SOL    HW121382   4.581   0.745   7.007 -0.8859  0.3532 -0.6067
 6647SOL    HW221383   4.686   0.644   7.052  0.3604  2.1594  0.6905
 6648SOL     OW21384   0.182   5.463   6.989 -0.2117  0.3117 -0.3340
 6648SOL    HW121385   0.198   5.369   6.997  0.3818  0.3566 -0.8620
 6648SOL    HW221386   0.161   5.491   7.077 -0.8130 -0.3911 -0.2401
 6649SOL     OW21387   4.793   7.382   1.374 -0.2784 -0.6844 -0.6110
 6649SOL    HW121388   4.829   7.460   1.332  1.0707 -0.6021  0.6253
 6649SOL    HW221389   4.706   7.408   1.402 -0.1499  0.1143 -0.9301
 6650SOL     OW21390   7.723   7.555   6.926  0.0876 -0.5914 -0.4782
 6650SOL    HW121391   7.768   7.590   7.003  1.0961 -0.0640 -1.2884
 6650SOL    HW221392   7.790   7.550   6.858 -0.7437 -1.2037 -1.2942
 6651SOL     OW21393   6.206   7.809   3.282  0.5518 -0.6255 -0.2961
 6651SOL    HW121394   6.187   7.798   3.189  0.2938 -1.5709 -0.1480
 6651SOL    HW221395   6.123   7.788   3.325  0.4448  0.5964  0.1185
 6652SOL     OW21396   5.730   2.911   1.250  0.2863 -0.4928  0.2299
 6652SOL    HW121397   5.672   2.923   1.325  0.4645  0.1395  0.2715
 6652SOL    HW221398   5.813   2.951   1.277  0.5765 -0.9053 -0.0349
 6653SOL     OW21399   2.405   0.793   4.618  0.1888  0.3109 -0.0058
 6653SOL    HW121400   2.416   0.766   4.709 -0.7980  0.2914  0.1243
 6653SOL    HW221401   2.490   0.828   4.592  0.3935  0.6029  1.0249
 6654SOL     OW21402   3.451   2.040   1.684  0.2533 -0.4707 -0.0825
 6654SOL    HW121403   3.439   2.006   1.595 -0.8909  0.1362 -0.1861
 6654SOL    HW221404   3.473   2.132   1.672  1.5080 -0.7096  0.2436
 6655SOL     OW21405   6.218   3.799  10.589 -0.2908  0.9795 -0.4273
 6655SOL    HW121406   6.131   3.828  10.559 -0.7176  1.3660  1.0760
 6655SOL    HW221407   6.276   3.817  10.515 -1.4358  0.9873 -1.3569
 6656SOL     OW21408   0.731   6.148   3.984 -0.2893 -0.0668  0.0149
 6656SOL    HW121409   0.712   6.116   3.896  0.9009 -1.0866  0.1030
 6656SOL    HW221410   0.826   6.164   3.985 -0.1281 -0.9075  1.3508
 6657SOL     OW21411   1.439   2.404   0.023 -0.0078  0.1593  0.3454
 6657SOL    HW121412   1.523   2.398   0.068 -0.2368 -0.5113  0.7022
 6657SOL    HW221413   1.385   2.459   0.079  0.3942  1.1288 -0.2102
 6658SOL     OW21414   4.570   1.029   2.788 -0.2518 -0.0042  0.1106
 6658SOL    HW121415   4.549   0.942   2.753 -0.4634 -0.0019  0.2355
 6658SOL    HW221416   4.591   1.013   2.880  0.8279 -0.0889 -0.1332
 6659SOL     OW21417   2.337   6.385   0.883 -0.4777  0.3007 -0.0830
 6659SOL    HW121418   2.325   6.436   0.963  0.7385  0.2299  0.1722
 6659SOL    HW221419   2.305   6.441   0.813  0.8502  1.4597  0.1850
 6660SOL     OW21420   2.184   7.695  11.433 -0.5036  0.4661  0.1630
 6660SOL    HW121421   2.242   7.659  11.500  0.1183  0.6574 -0.2537
 6660SOL    HW221422   2.186   7.790  11.447  1.0126  0.6846 -1.1532
 6661SOL     OW21423   1.671   5.897   1.387 -0.1867 -0.2023  0.6436
 6661SOL    HW121424   1.727   5.946   1.327  0.1922 -1.0060  0.3276
 6661SOL    HW221425   1.680   5.943   1.471 -1.3907  1.4516 -0.0799
 6662SOL     OW21426   3.706   6.872   3.316 -0.6642  0.4226  0.2475
 6662SOL    HW121427   3.647   6.947   3.309 -1.2980 -0.1641 -1.0343
 6662SOL    HW221428   3.650   6.800   3.347 -0.2350  0.2847  0.7125
 6663SOL     OW21429   1.858   7.091   0.500 -0.4537 -0.5245 -0.2596
 6663SOL    HW121430   1.919   7.143   0.552  0.6086 -1.5616 -0.4134
 6663SOL    HW221431   1.791   7.152   0.472 -1.5986 -0.0537  3.0685
 6664SOL     OW21432   7.282   3.476   1.629  0.2960 -0.2092 -0.1716
 6664SOL    HW121433   7.276   3.381   1.623  1.9086 -0.3772  0.4290
 6664SOL    HW221434   7.232   3.508   1.554  0.1610 -1.5302 -0.6720
 6665SOL     OW21435   3.720   0.395   0.913 -0.5783 -0.0925  0.7483
 6665SOL    HW121436   3.792   0.383   0.851 -1.7775  1.7485 -1.1276
 6665SOL    HW221437   3.736   0.481   0.952 -2.6990  1.2635 -1.1574
 6666SOL     OW21438   1.663   5.850  10.498  0.2065  0.2262  0.1343
 6666SOL    HW121439   1.629   5.911  10.433 -1.9022  0.4096  1.3013
 6666SOL    HW221440   1.619   5.767  10.478  1.8197 -0.5296 -0.4538
 6667SOL     OW21441   1.435   5.726   3.094  0.3636 -0.0890 -0.3518
 6667SOL    HW121442   1.393   5.711   3.178  0.8715 -1.5432 -0.3385
 6667SOL    HW221443   1.377   5.788   3.049  0.1993  0.8796  1.1283
 6668SOL     OW21444   7.093   4.346   6.675 -0.3180  0.4432  0.8379
 6668SOL    HW121445   7.099   4.326   6.769 -0.1929  0.4677  0.8362
 6668SOL    HW221446   7.184   4.342   6.644 -0.4388 -0.2912  0.5660
 6669SOL     OW21447   2.916   1.190   1.115  0.7948  0.4678  0.4800
 6669SOL    HW121448   2.886   1.279   1.134  0.1200  0.1613  0.8996
 6669SOL    HW221449   2.869   1.165   1.035  1.9525  0.9399 -0.3861
 6670SOL     OW21450   2.799   5.724   2.406 -0.0754 -0.0079  0.4080
 6670SOL    HW121451   2.803   5.629   2.396  1.6339  0.3070 -4.1573
 6670SOL    HW221452   2.709   5.747   2.386 -0.2337 -0.5504  0.4735
 6671SOL     OW21453   5.574   5.462  10.261 -0.5204 -0.9236  0.2140
 6671SOL    HW121454   5.521   5.399  10.310 -1.8211  1.2819  1.7947
 6671SOL    HW221455   5.641   5.491  10.322 -0.2730 -0.3722 -0.3045
 6672SOL     OW21456   4.010   7.693   5.384  0.2190 -0.3217  0.2563
 6672SOL    HW121457   3.998   7.688   5.289 -0.8646 -1.2240  0.4120
 6672SOL    HW221458   3.922   7.712   5.418  0.6848  0.4681  1.0579
 6673SOL     OW21459   2.112   3.047   0.485  0.3029  0.1208 -0.3997
 6673SOL    HW121460   2.179   3.018   0.547  1.9220  0.6243 -1.8188
 6673SOL    HW221461   2.136   3.004   0.403 -1.3060  0.0954 -0.8962
 6674SOL     OW21462   4.474   3.708  10.712 -0.2805  0.1013 -0.6446
 6674SOL    HW121463   4.452   3.748  10.796 -1.4324  0.9758 -1.3406
 6674SOL    HW221464   4.398   3.725  10.656 -0.1508 -1.7143 -1.4483
 6675SOL     OW21465   2.332   5.752   8.706  0.0209  0.5115  0.0547
 6675SOL    HW121466   2.268   5.683   8.689 -0.0534  0.2605  1.2733
 6675SOL    HW221467   2.406   5.731   8.649 -0.4294  0.0372 -0.3673
 6676SOL     OW21468   2.103   1.419   4.084 -0.4687 -0.4427  0.1818
 6676SOL    HW121469   2.155   1.380   4.013 -0.5627 -1.6417  0.7516
 6676SOL    HW221470   2.052   1.488   4.041 -0.9338 -1.5012 -1.0361
 6677SOL     OW21471   7.096   6.429   2.347 -0.2205 -0.2580 -0.0986
 6677SOL    HW121472   7.012   6.475   2.339 -0.3027 -0.4982 -0.6743
 6677SOL    HW221473   7.149   6.464   2.276 -0.6806 -1.8695 -1.2923
 6678SOL     OW21474   1.065   4.271   1.203  0.3277 -0.0329  0.0364
 6678SOL    HW121475   1.091   4.178   1.204 -3.1604 -1.1718 -1.1441
 6678SOL    HW221476   1.031   4.285   1.115 -0.4537  2.0165  0.6220
 6679SOL     OW21477   2.441   5.592   2.560  0.3024 -0.5964 -0.0326
 6679SOL    HW121478   2.382   5.612   2.488  0.6892 -1.4172 -0.5860
 6679SOL    HW221479   2.486   5.512   2.534  0.9147 -0.5576  0.8356
 6680SOL     OW21480   0.211   7.139   4.269 -0.0808 -0.0373 -0.3457
 6680SOL    HW121481   0.207   7.234   4.273  1.1470  0.0536 -0.8647
 6680SOL    HW221482   0.296   7.120   4.229 -1.0492 -1.3045 -1.9575
 6681SOL     OW21483   1.003   4.525   1.686  0.3747  0.5834  0.6611
 6681SOL    HW121484   1.059   4.479   1.624  0.3815  1.0289  0.3290
 6681SOL    HW221485   1.061   4.551   1.757  0.5904  1.0025  0.3399
 6682SOL     OW21486   2.154   1.979   0.477  0.1545 -0.2741 -0.0573
 6682SOL    HW121487   2.088   1.950   0.414 -0.2670 -1.0390  0.7183
 6682SOL    HW221488   2.121   1.950   0.562  0.9957  0.2327  0.4596
 6683SOL     OW21489   1.269   4.097   1.471 -0.4565 -0.0690  0.4687
 6683SOL    HW121490   1.234   4.052   1.548  0.7333 -1.0969  0.4545
 6683SOL    HW221491   1.229   4.052   1.397 -0.4617 -0.0723  0.4734
 6684SOL     OW21492   7.838   4.228   2.493 -0.3244  0.2005  0.1454
 6684SOL    HW121493   7.766   4.200   2.437 -0.0162 -0.0998 -0.1065
 6684SOL    HW221494   7.840   4.162   2.564 -0.9066  0.7487  0.6828
 6685SOL     OW21495   2.670   1.841  11.289 -0.3033 -0.2088  0.5783
 6685SOL    HW121496   2.697   1.751  11.303 -0.2727 -0.4873 -1.0299
 6685SOL    HW221497   2.751   1.892  11.296  0.3900 -0.7880 -2.1355
 6686SOL     OW21498   7.361   3.590   4.602 -0.3487 -0.5526 -0.0161
 6686SOL    HW121499   7.297   3.532   4.560  0.0206 -0.7724 -0.2797
 6686SOL    HW221500   7.428   3.604   4.535  0.5382 -1.3522  0.6770
 6687SOL     OW21501   5.559   4.221   8.722  0.3233  0.3478  0.5101
 6687SOL    HW121502   5.537   4.129   8.737  1.8988 -0.0815  0.4113
 6687SOL    HW221503   5.618   4.219   8.647 -0.6923  1.6005 -0.3657
 6688SOL     OW21504   5.142   2.276   5.400  0.0819  0.3894 -0.7836
 6688SOL    HW121505   5.154   2.255   5.493 -0.3905  0.3945 -0.7167
 6688SOL    HW221506   5.231   2.280   5.365  0.2444 -0.4038 -0.5075
 6689SOL     OW21507   6.301   2.015   8.178  0.4439 -0.6998 -0.3739
 6689SOL    HW121508   6.226   2.056   8.223  0.6272  1.2789 -1.7718
 6689SOL    HW221509   6.304   1.926   8.215 -0.7613  0.0978  1.8725
 6690SOL     OW21510   2.727   7.580   5.803  0.0122 -0.5030 -0.5419
 6690SOL    HW121511   2.667   7.631   5.858  1.1869 -0.8644  1.1271
 6690SOL    HW221512   2.806   7.571   5.855  0.3020 -2.9878 -1.2686
 6691SOL     OW21513   4.308   7.340   3.701 -0.3780 -0.4542 -0.2501
 6691SOL    HW121514   4.245   7.370   3.767  0.1187 -0.6543  0.3212
 6691SOL    HW221515   4.330   7.251   3.727  1.8052  0.3249  0.8599
 6692SOL     OW21516   1.200   6.343  11.550 -0.0429 -0.2725  0.4209
 6692SOL    HW121517   1.170   6.327  11.640  1.0452 -0.1127  0.8239
 6692SOL    HW221518   1.279   6.396  11.560  0.1453 -0.3328 -0.6308
 6693SOL     OW21519   1.832   4.702   9.932 -0.0914  0.3338 -0.2546
 6693SOL    HW121520   1.800   4.706  10.023 -1.9263  0.8298 -0.8884
 6693SOL    HW221521   1.767   4.649   9.886  0.5467  0.5214 -1.3980
 6694SOL     OW21522   7.222   5.094   3.383 -0.1967 -0.0144 -0.5249
 6694SOL    HW121523   7.194   5.169   3.435  1.4067 -0.5753  1.2888
 6694SOL    HW221524   7.163   5.023   3.409  1.8385 -0.8538  2.3034
 6695SOL     OW21525   0.311   3.005   7.889 -0.1489  0.0176  0.1512
 6695SOL    HW121526   0.360   3.041   7.964 -0.5846 -0.8059  0.8453
 6695SOL    HW221527   0.220   3.026   7.908 -0.3301 -0.7835  0.1947
 6696SOL     OW21528   0.172   2.214   6.299  0.1104  0.3588 -0.5179
 6696SOL    HW121529   0.180   2.175   6.212 -0.1028  0.2771 -0.5010
 6696SOL    HW221530   0.092   2.266   6.294 -0.1431 -0.0046 -0.2299
 6697SOL     OW21531   7.187   7.548   1.431  0.5988 -0.5637  0.5029
 6697SOL    HW121532   7.194   7.473   1.490 -0.6003  0.3016  1.8319
 6697SOL    HW221533   7.270   7.595   1.442  0.3495 -0.3477  1.6551
 6698SOL     OW21534   3.900   2.442   6.030  0.3361 -0.4696  0.1544
 6698SOL    HW121535   3.811   2.407   6.035 -0.3420  1.2364  0.8706
 6698SOL    HW221536   3.889   2.529   5.992  1.8996 -0.8300 -1.2191
 6699SOL     OW21537   7.142   5.596  11.278 -0.6313  0.2482  0.2481
 6699SOL    HW121538   7.115   5.623  11.191 -1.6447 -2.0360 -0.2247
 6699SOL    HW221539   7.060   5.594  11.329 -0.5729 -1.3699  0.3468
 6700SOL     OW21540   5.625   1.818  10.156  0.1587  0.1480 -0.0472
 6700SOL    HW121541   5.640   1.762  10.232 -0.6533  1.8720  1.4765
 6700SOL    HW221542   5.531   1.833  10.156 -0.3612 -2.1442 -3.2210
 6701SOL     OW21543   2.682   6.441   2.649  0.4339  0.4183  0.4578
 6701SOL    HW121544   2.664   6.533   2.668 -0.6835  0.2374  0.3546
 6701SOL    HW221545   2.612   6.393   2.692  0.2776 -0.2932 -0.5486
 6702SOL     OW21546   0.240   0.126   4.646 -0.5701 -0.0706  0.0568
 6702SOL    HW121547   0.225   0.084   4.561 -0.6548  0.6636 -0.3059
 6702SOL    HW221548   0.196   0.070   4.709 -0.6071 -0.5646 -0.4025
 6703SOL     OW21549   3.036   5.635   4.682 -0.0402  0.1982  0.1150
 6703SOL    HW121550   3.010   5.672   4.597  0.5987  0.9314  0.2293
 6703SOL    HW221551   3.050   5.711   4.738  2.1062 -0.1415  0.1177
 6704SOL     OW21552   3.906   5.442   0.585 -0.2567  0.4671 -0.3773
 6704SOL    HW121553   3.891   5.427   0.678  1.4569 -1.6261 -0.3465
 6704SOL    HW221554   3.891   5.356   0.544 -0.5426  1.2354 -1.9766
 6705SOL     OW21555   7.223   5.966  11.413  0.4478  0.0012  0.2931
 6705SOL    HW121556   7.240   6.057  11.389  0.5411 -0.0810  0.0425
 6705SOL    HW221557   7.260   5.915  11.341 -0.2890 -0.2100  0.0649
 6706SOL     OW21558   7.071   2.815   2.209  0.1236  0.2099  0.0800
 6706SOL    HW121559   7.141   2.783   2.265 -1.5847 -1.7746  1.2400
 6706SOL    HW221560   7.031   2.886   2.259  0.9113  0.9534 -0.3268
 6707SOL     OW21561   3.520   3.550  11.398  0.2616  0.1436  0.5491
 6707SOL    HW121562   3.493   3.459  11.397  0.0388  0.2097  0.4447
 6707SOL    HW221563   3.575   3.558  11.476  2.2067 -0.6197 -0.6798
 6708SOL     OW21564   3.331   6.579  11.257 -0.8503 -0.0079  0.2384
 6708SOL    HW121565   3.318   6.488  11.228  0.1434  0.0234 -0.3670
 6708SOL    HW221566   3.263   6.629  11.210 -0.3155 -0.2045 -0.7786
 6709SOL     OW21567   1.134   1.900   7.217 -0.0551 -0.1455  0.3522
 6709SOL    HW121568   1.111   1.812   7.188 -2.3881  0.0717  1.3414
 6709SOL    HW221569   1.217   1.919   7.174 -1.4792 -1.2349 -3.1767
 6710SOL     OW21570   0.987   1.838   5.648  0.0346 -0.3149  0.0005
 6710SOL    HW121571   1.005   1.932   5.641  0.0224 -0.0379  2.6055
 6710SOL    HW221572   1.028   1.812   5.731 -1.5099 -2.2041  0.2516
 6711SOL     OW21573   2.491   3.435  11.015  0.1220  0.0989 -0.0359
 6711SOL    HW121574   2.537   3.519  11.013 -1.8284  1.2307 -2.6980
 6711SOL    HW221575   2.501   3.399  10.927 -1.8178 -0.8557  0.0610
 6712SOL     OW21576   7.189   4.030   5.298  0.1149  0.4107 -0.3727
 6712SOL    HW121577   7.211   4.002   5.209  1.6173 -0.6359  0.2827
 6712SOL    HW221578   7.215   3.957   5.354 -0.1996  1.2932  0.9988
 6713SOL     OW21579   3.122   6.446  10.727  0.1914  0.0667 -0.0782
 6713SOL    HW121580   3.138   6.537  10.704 -2.0560  0.7050  0.6357
 6713SOL    HW221581   3.167   6.434  10.811  2.2301 -0.1563 -1.1238
 6714SOL     OW21582   7.350   5.346  10.674 -0.0305  0.7411  0.8463
 6714SOL    HW121583   7.441   5.350  10.702  0.7909 -1.7545 -1.0887
 6714SOL    HW221584   7.306   5.291  10.738  0.3237  0.2792  0.6958
 6715SOL     OW21585   5.572   2.422   8.841 -0.3674  0.3020 -0.1495
 6715SOL    HW121586   5.544   2.471   8.764 -0.5592 -0.1689 -0.3864
 6715SOL    HW221587   5.644   2.474   8.878 -1.3395  1.3633  0.2962
 6716SOL     OW21588   4.958   4.323   8.575 -0.3345  0.2979 -0.1961
 6716SOL    HW121589   4.878   4.278   8.547 -0.5825  1.4169 -1.4121
 6716SOL    HW221590   4.987   4.370   8.497  0.7930  0.9538  0.5891
 6717SOL     OW21591   1.799   3.256   8.995 -0.5340 -0.0837 -0.4727
 6717SOL    HW121592   1.889   3.265   8.965 -0.8321 -0.3459 -1.4836
 6717SOL    HW221593   1.805   3.202   9.074  0.2357  0.3404 -0.2363
 6718SOL     OW21594   2.368   6.360  11.033  0.0889  0.1594  0.5632
 6718SOL    HW121595   2.280   6.396  11.018 -0.0366 -0.1152  0.6279
 6718SOL    HW221596   2.352   6.281  11.084 -0.2040 -3.3919 -4.3822
 6719SOL     OW21597   6.122   0.562   0.021  0.4365  0.6922  0.5343
 6719SOL    HW121598   6.047   0.518  -0.020  0.6376 -1.7185  2.5034
 6719SOL    HW221599   6.191   0.560  -0.045 -0.6606  1.3948 -0.6892
 6720SOL     OW21600   0.721   4.124  10.458  0.1667  0.1800  0.9542
 6720SOL    HW121601   0.668   4.188  10.412 -0.1135 -0.6731  0.0502
 6720SOL    HW221602   0.739   4.164  10.544  0.4120  1.6511  0.2477
 6721SOL     OW21603   7.182   2.647   8.411 -0.1182  0.2959 -0.0553
 6721SOL    HW121604   7.110   2.611   8.463 -1.8342  1.1955 -1.7014
 6721SOL    HW221605   7.235   2.570   8.387  0.3413 -0.2286  2.3223
 6722SOL     OW21606   3.821   2.000   3.018  0.2280  0.5649 -0.1272
 6722SOL    HW121607   3.911   1.968   3.021 -0.5036 -1.6518  1.5454
 6722SOL    HW221608   3.784   1.960   2.940  0.4931  0.8474 -0.3974
 6723SOL     OW21609   5.389   5.105   1.080 -0.3780 -0.4008  0.1884
 6723SOL    HW121610   5.415   5.182   1.130 -0.2444  1.6705 -2.7931
 6723SOL    HW221611   5.296   5.093   1.102 -0.3562  0.5184  0.8411
 6724SOL     OW21612   5.338   5.809  10.237  0.1581 -0.4578 -0.0214
 6724SOL    HW121613   5.395   5.816  10.313  1.2255  0.2085 -0.8592
 6724SOL    HW221614   5.369   5.730  10.191 -1.4458 -1.7349  0.9720
 6725SOL     OW21615   5.579   2.645   1.386  0.4584  0.6303  0.4927
 6725SOL    HW121616   5.611   2.577   1.446  1.6831  0.9781  0.2610
 6725SOL    HW221617   5.627   2.630   1.305  0.5968  1.6586  0.3733
 6726SOL     OW21618   2.666   1.734   6.935  0.3686  0.1469 -0.5311
 6726SOL    HW121619   2.603   1.734   7.007 -0.6409  1.1790 -1.3835
 6726SOL    HW221620   2.721   1.810   6.952  0.8715 -0.2679 -0.2525
 6727SOL     OW21621   6.838   5.257   2.739  0.0849 -0.4232 -0.4511
 6727SOL    HW121622   6.908   5.270   2.674 -1.2205 -2.1231 -2.3291
 6727SOL    HW221623   6.764   5.307   2.705 -0.2348 -0.2882  0.4270
 6728SOL     OW21624   5.297   0.731   3.392 -0.4569  0.1559  0.2212
 6728SOL    HW121625   5.242   0.751   3.316 -0.5024 -0.6582  0.0319
 6728SOL    HW221626   5.384   0.763   3.367 -0.6480  0.6235  0.1532
 6729SOL     OW21627   6.690   0.970   0.219  0.1887 -0.3112 -0.4097
 6729SOL    HW121628   6.636   0.913   0.274  0.4268 -1.5427 -1.3924
 6729SOL    HW221629   6.653   0.959   0.131  1.2674 -0.2351 -0.8889
 6730SOL     OW21630   2.244   5.619  10.239  0.1272  0.3649 -0.2668
 6730SOL    HW121631   2.173   5.631  10.302  0.5362  0.0379  0.2580
 6730SOL    HW221632   2.201   5.581  10.162 -0.5287  1.5822 -0.5351
 6731SOL     OW21633   0.810   7.158   5.578  0.1220 -0.0876  0.1802
 6731SOL    HW121634   0.806   7.069   5.613  0.3408  0.0248  0.5039
 6731SOL    HW221635   0.852   7.209   5.648  0.2336  0.2175 -0.1045
 6732SOL     OW21636   5.547   2.230   1.877 -0.5786  0.6907  0.0072
 6732SOL    HW121637   5.468   2.283   1.868 -0.2227  1.1418 -0.4812
 6732SOL    HW221638   5.558   2.189   1.791  0.0002  1.0219 -0.0761
 6733SOL     OW21639   6.262   1.936   8.911  0.3217 -0.0245  0.5524
 6733SOL    HW121640   6.338   1.974   8.867 -0.1596  0.4525  0.1038
 6733SOL    HW221641   6.298   1.871   8.970  1.0091 -0.5544 -0.4128
 6734SOL     OW21642   7.039   3.398   2.700  0.1289 -0.3643  0.3005
 6734SOL    HW121643   7.022   3.304   2.694 -0.0100 -0.2506 -1.9822
 6734SOL    HW221644   7.132   3.407   2.678  0.0100  0.0652 -0.0414
 6735SOL     OW21645   0.321   3.059   9.129  0.7329  0.2882 -0.1420
 6735SOL    HW121646   0.291   3.090   9.214  1.1805  0.6086 -0.0980
 6735SOL    HW221647   0.274   2.976   9.116  0.6245  0.2611  0.3919
 6736SOL     OW21648   7.951   1.224   2.664 -0.3483  0.2693  0.1043
 6736SOL    HW121649   7.976   1.190   2.751  1.4731 -1.2178 -0.9156
 6736SOL    HW221650   8.013   1.294   2.648  0.9010 -1.0012 -0.9093
 6737SOL     OW21651   4.289   5.674   0.764  0.6342  0.2111 -0.0710
 6737SOL    HW121652   4.354   5.672   0.694 -1.8740  0.1525 -2.5502
 6737SOL    HW221653   4.224   5.609   0.739 -0.7975  0.7844  1.9119
 6738SOL     OW21654   2.329   5.803  11.976  0.1202 -0.4805  0.5570
 6738SOL    HW121655   2.242   5.802  11.937  0.0741 -1.5604  0.6556
 6738SOL    HW221656   2.378   5.736  11.928  1.2680  0.9243 -0.3035
 6739SOL     OW21657   3.644   2.191   1.934 -0.1258 -0.3703  0.2162
 6739SOL    HW121658   3.620   2.151   2.017  0.8765  0.1953  0.8006
 6739SOL    HW221659   3.561   2.210   1.891 -0.6854 -3.4030 -0.3003
 6740SOL     OW21660   4.156   5.834  10.805 -0.6207 -0.0809  0.3366
 6740SOL    HW121661   4.246   5.850  10.776 -1.4297 -0.4404 -2.7738
 6740SOL    HW221662   4.156   5.860  10.897  2.2023  1.6937 -0.0121
 6741SOL     OW21663   5.025   6.965   3.418 -0.3055 -0.1691  0.1149
 6741SOL    HW121664   5.085   7.019   3.469 -1.3175 -0.7861  2.0667
 6741SOL    HW221665   4.938   6.997   3.440 -0.8191 -1.0357 -0.5541
 6742SOL     OW21666   1.911   3.652   1.182 -0.3781  0.2509 -0.3973
 6742SOL    HW121667   1.899   3.563   1.214 -0.2376  0.0797 -0.8180
 6742SOL    HW221668   1.826   3.677   1.147 -0.0762 -0.1980 -1.4703
 6743SOL     OW21669   7.381   6.514   6.102  0.5146 -0.6472  0.3145
 6743SOL    HW121670   7.337   6.565   6.170 -0.5956 -1.8687  0.5472
 6743SOL    HW221671   7.445   6.575   6.064  0.9418  0.1612  2.2074
 6744SOL     OW21672   6.997   4.418  12.341  0.1936  0.4855  0.1364
 6744SOL    HW121673   6.991   4.512  12.326 -0.6220  0.7274  1.7063
 6744SOL    HW221674   7.073   4.408  12.398  0.0041  0.2545  0.3505
 6745SOL     OW21675   0.787   0.071   6.915 -0.2932  0.4099  0.9555
 6745SOL    HW121676   0.726   0.121   6.860  0.0729  1.2599  1.2958
 6745SOL    HW221677   0.856   0.134   6.936  1.1866 -0.7760 -0.1590
 6746SOL     OW21678   1.809   3.519  10.218  0.0981  0.1565 -0.2894
 6746SOL    HW121679   1.886   3.575  10.214  0.0973  0.4420  2.2854
 6746SOL    HW221680   1.839   3.434  10.185  2.0073 -0.1786  2.0076
 6747SOL     OW21681   2.752   7.206   8.815  0.4396  0.4916 -0.2425
 6747SOL    HW121682   2.826   7.209   8.753 -0.0810  1.6308 -0.8492
 6747SOL    HW221683   2.732   7.298   8.831 -1.1161  0.1998 -0.4136
 6748SOL     OW21684   1.033   1.814   6.509 -0.0344 -0.3035  0.3600
 6748SOL    HW121685   1.028   1.719   6.515 -1.5269 -0.3434 -0.8365
 6748SOL    HW221686   0.956   1.839   6.457  1.7735  1.3221 -1.7653
 6749SOL     OW21687   5.643   5.788   1.161  0.1308  0.1565  0.1453
 6749SOL    HW121688   5.625   5.764   1.252  0.0988 -1.5513 -0.2814
 6749SOL    HW221689   5.573   5.851   1.140 -0.1456  0.2135  1.1494
 6750SOL     OW21690   5.679   3.484   7.098 -0.0279 -0.0080  0.4186
 6750SOL    HW121691   5.734   3.526   7.031 -0.7802 -1.0585 -0.9066
 6750SOL    HW221692   5.639   3.557   7.145  0.9138  0.7597  0.0803
 6751SOL     OW21693   6.551   4.147   3.000 -0.0808 -0.1189  0.0726
 6751SOL    HW121694   6.605   4.078   3.038 -0.1669 -0.4459 -0.3997
 6751SOL    HW221695   6.482   4.161   3.066 -0.4254 -0.9258 -0.0982
 6752SOL     OW21696   6.572   4.551   8.269 -0.0871  0.3930 -0.2046
 6752SOL    HW121697   6.499   4.521   8.322 -1.4583 -0.7545 -2.5989
 6752SOL    HW221698   6.640   4.485   8.283  0.1155  0.8439  1.1263
 6753SOL     OW21699   1.374   7.355   5.231  0.1280  0.0382  0.4111
 6753SOL    HW121700   1.465   7.334   5.254 -0.1271 -2.9011 -0.8547
 6753SOL    HW221701   1.339   7.397   5.309  1.9344 -0.9199  1.8231
 6754SOL     OW21702   0.666   6.730   6.621 -0.2874 -0.2328  0.1818
 6754SOL    HW121703   0.571   6.738   6.616 -0.4295 -1.2711  0.8508
 6754SOL    HW221704   0.700   6.799   6.564 -1.4270  0.5111  0.3970
 6755SOL     OW21705   5.245   1.970   2.441  0.5079  0.3698 -0.1045
 6755SOL    HW121706   5.224   1.878   2.423  0.7299  0.5232 -1.2029
 6755SOL    HW221707   5.200   1.989   2.523 -0.6280 -0.3515 -0.5382
 6756SOL     OW21708   5.808   0.874   2.417 -0.0362  0.0440  0.3162
 6756SOL    HW121709   5.754   0.795   2.423 -1.0188  0.7575  1.1671
 6756SOL    HW221710   5.884   0.854   2.472  1.5192 -1.6251 -2.2273
 6757SOL     OW21711   2.107   2.386  12.352  0.1013 -0.3884  0.1768
 6757SOL    HW121712   2.060   2.313  12.392 -1.7896  0.9946  0.5834
 6757SOL    HW221713   2.185   2.397  12.407  0.4318 -2.0650  0.1015
 6758SOL     OW21714   7.453   2.199   4.111 -0.0752 -0.3310 -0.2196
 6758SOL    HW121715   7.485   2.117   4.074  0.1730  0.4361 -1.7755
 6758SOL    HW221716   7.518   2.222   4.176 -0.0071 -1.2217  0.0487
 6759SOL     OW21717   0.848   4.447   1.910 -0.5813 -0.1991 -0.1821
 6759SOL    HW121718   0.877   4.482   1.995 -1.1490 -0.6390  0.2024
 6759SOL    HW221719   0.889   4.505   1.846 -1.3264  1.0719  0.4359
 6760SOL     OW21720   0.701   5.725  11.121  0.2491  0.2049  0.0115
 6760SOL    HW121721   0.694   5.814  11.154 -1.2396 -0.2085  0.8807
 6760SOL    HW221722   0.769   5.685  11.175  0.3965  0.5897  0.1133
 6761SOL     OW21723   1.518   1.633  10.168  0.6796 -0.8160 -0.2909
 6761SOL    HW121724   1.508   1.611  10.075 -1.1265 -2.5801  0.2664
 6761SOL    HW221725   1.498   1.552  10.215  0.2073  0.3775  1.6904
 6762SOL     OW21726   2.407   6.397   5.478 -0.2131  0.0812  0.0917
 6762SOL    HW121727   2.423   6.361   5.565 -1.6827 -1.3094 -0.1456
 6762SOL    HW221728   2.318   6.367   5.456  0.9018 -1.5325 -2.7827
 6763SOL     OW21729   3.988   6.514  10.313 -0.0035 -0.1251 -0.0192
 6763SOL    HW121730   4.003   6.606  10.337  0.2872 -0.5755  1.6359
 6763SOL    HW221731   3.893   6.505  10.313 -0.0283  0.1160  0.0526
 6764SOL     OW21732   3.359   6.778   6.595 -0.5281  0.2683 -0.3980
 6764SOL    HW121733   3.380   6.687   6.616  0.3623  0.5414 -0.0582
 6764SOL    HW221734   3.404   6.829   6.662  1.2948  1.0964 -2.1620
 6765SOL     OW21735   2.793   3.959  10.281  0.3407 -0.5094  0.0018
 6765SOL    HW121736   2.864   3.978  10.221  0.2653 -0.2114  0.0090
 6765SOL    HW221737   2.715   3.954  10.226  0.5274 -1.9842 -0.1776
 6766SOL     OW21738   3.587   7.109   1.665  0.0473 -0.1461  0.4424
 6766SOL    HW121739   3.585   7.163   1.744  0.1228  0.4956  0.0215
 6766SOL    HW221740   3.621   7.025   1.693 -2.2738 -0.7795  1.5799
 6767SOL     OW21741   1.394   7.477   6.382 -0.2156  0.5419  0.0148
 6767SOL    HW121742   1.322   7.482   6.320  2.3428 -0.8541 -3.3801
 6767SOL    HW221743   1.365   7.415   6.448 -1.9095 -0.4057 -1.5404
 6768SOL     OW21744   1.560   4.543  10.551  0.1589 -0.3399 -0.3853
 6768SOL    HW121745   1.593   4.459  10.518 -0.1390  0.8152 -4.1357
 6768SOL    HW221746   1.501   4.574  10.482  0.0722  2.8449  0.9395
 6769SOL     OW21747   6.991   3.122   0.197 -0.5670  0.3020 -0.0510
 6769SOL    HW121748   6.949   3.050   0.150 -0.0239 -1.4189  1.9240
 6769SOL    HW221749   6.921   3.158   0.252 -0.1589 -0.8260  1.2692
 6770SOL     OW21750   0.957   0.788   0.909  0.8489 -0.3111  0.9662
 6770SOL    HW121751   0.978   0.702   0.873  0.0071 -1.0286  2.1227
 6770SOL    HW221752   0.910   0.833   0.839  2.6428 -0.1631 -0.2193
 6771SOL     OW21753   5.335   3.277  10.079  0.3008 -0.2472 -0.0173
 6771SOL    HW121754   5.321   3.183  10.065  1.7050 -0.5011  0.1076
 6771SOL    HW221755   5.417   3.296  10.034 -0.0349  0.9604 -0.1587
 6772SOL     OW21756   5.639   6.671   9.954  0.2928 -0.7499 -0.9933
 6772SOL    HW121757   5.556   6.644   9.914  1.2232 -0.5994 -3.1417
 6772SOL    HW221758   5.680   6.589   9.982 -0.8781 -0.7729  0.8032
 6773SOL     OW21759   4.525   0.551   1.037 -0.3621 -0.1854 -0.5716
 6773SOL    HW121760   4.453   0.609   1.062 -1.0165 -1.2692  0.1488
 6773SOL    HW221761   4.580   0.547   1.116 -0.3360 -0.5736 -0.6101
 6774SOL     OW21762   3.441   7.767   6.475  0.1127 -0.0551  0.8255
 6774SOL    HW121763   3.458   7.777   6.381 -0.2773  1.0241  0.8523
 6774SOL    HW221764   3.496   7.694   6.502  0.3976 -0.2328 -0.2030
 6775SOL     OW21765   6.039   2.885   0.773 -0.2169 -0.6740 -0.1718
 6775SOL    HW121766   6.013   2.915   0.859 -1.1119 -0.5292 -0.4834
 6775SOL    HW221767   6.057   2.791   0.785 -1.4352 -0.9119 -0.0439
 6776SOL     OW21768   7.221   7.941  12.171 -0.0655 -0.4805  0.2643
 6776SOL    HW121769   7.298   7.889  12.193  0.8502  1.3641  1.6873
 6776SOL    HW221770   7.178   7.958  12.256 -0.8781  0.2305 -0.2694
 6777SOL     OW21771   6.119   5.041   7.133 -0.4020  0.0389 -0.1523
 6777SOL    HW121772   6.116   5.111   7.068 -1.6800 -0.0259 -0.1945
 6777SOL    HW221773   6.133   4.961   7.081  0.4175  0.1807 -0.1616
 6778SOL     OW21774   6.827   7.071   1.145  0.0978 -0.0491 -0.2062
 6778SOL    HW121775   6.767   7.040   1.213  0.0013 -0.0555 -0.2934
 6778SOL    HW221776   6.909   7.087   1.191  0.0694 -0.1739 -0.1119
 6779SOL     OW21777   3.989   7.948  10.294 -0.3744  0.3550  0.0678
 6779SOL    HW121778   4.028   7.973  10.377 -1.2443  2.9767 -0.2108
 6779SOL    HW221779   3.894   7.957  10.309 -0.6832 -1.6116 -0.5023
 6780SOL     OW21780   0.216   2.891   5.095 -0.3951  0.3663  0.2569
 6780SOL    HW121781   0.299   2.877   5.049 -0.2668  0.6294  0.4042
 6780SOL    HW221782   0.191   2.980   5.072 -0.4843  0.3920  0.4534
 6781SOL     OW21783   7.916   5.030   9.439 -0.1017  0.1567 -0.7201
 6781SOL    HW121784   7.896   5.018   9.346  1.0557 -1.2894 -0.8120
 6781SOL    HW221785   7.831   5.049   9.479 -0.8408 -0.5788 -1.8648
 6782SOL     OW21786   7.727   5.567   0.579  0.1342  0.7987 -0.2689
 6782SOL    HW121787   7.736   5.483   0.624 -1.5624  0.2421 -0.8733
 6782SOL    HW221788   7.680   5.623   0.640  0.3988  0.9925 -0.2411
 6783SOL     OW21789   4.543   5.275   7.004  0.1671  0.9010  0.2768
 6783SOL    HW121790   4.553   5.218   6.927 -0.6471  2.1277 -0.7805
 6783SOL    HW221791   4.608   5.243   7.066 -1.2748 -2.2138  0.3867
 6784SOL     OW21792   2.951   2.913   2.087 -0.2769 -0.0625 -0.3403
 6784SOL    HW121793   2.982   2.830   2.125  2.7240  0.3323 -1.6635
 6784SOL    HW221794   3.025   2.972   2.096 -2.0103  2.2373 -0.3465
 6785SOL     OW21795   4.223   0.817   6.838  0.5440  0.2702  0.3553
 6785SOL    HW121796   4.161   0.754   6.800  0.2778 -0.4924  1.9441
 6785SOL    HW221797   4.230   0.791   6.930  1.4271  1.7940  0.7628
 6786SOL     OW21798   4.317   2.511  10.642 -0.3056  0.6617 -0.0424
 6786SOL    HW121799   4.368   2.497  10.562 -0.1966 -1.1651  0.3101
 6786SOL    HW221800   4.299   2.605  10.643 -1.8475  0.5262 -3.1563
 6787SOL     OW21801   2.443   7.425   4.995  0.1943  0.4819  0.6525
 6787SOL    HW121802   2.386   7.385   5.060 -0.0034 -0.6530 -0.1920
 6787SOL    HW221803   2.514   7.362   4.982  1.3141  1.5811  1.2035
 6788SOL     OW21804   1.565   0.151  10.197  0.2005  0.1200 -0.7734
 6788SOL    HW121805   1.507   0.076  10.188  0.1829  0.0624 -0.2080
 6788SOL    HW221806   1.529   0.202  10.270  1.4379 -0.4621  0.2862
 6789SOL     OW21807   3.554   3.121  11.557 -0.0269 -0.2693  0.1391
 6789SOL    HW121808   3.615   3.062  11.514  0.1595 -1.1540  1.5447
 6789SOL    HW221809   3.514   3.067  11.626 -0.5969  0.9715  0.8006
 6790SOL     OW21810   6.125   3.019  10.736 -0.3136 -0.2383  0.4721
 6790SOL    HW121811   6.159   2.979  10.816 -0.7503 -0.8532  0.3613
 6790SOL    HW221812   6.148   2.958  10.667  1.8406  1.2379 -0.2091
 6791SOL     OW21813   0.159   3.698   6.268  0.2655 -0.1393  0.2701
 6791SOL    HW121814   0.124   3.719   6.182 -0.5306  0.4462  0.7218
 6791SOL    HW221815   0.103   3.627   6.300  0.6022 -0.4029  0.2716
 6792SOL     OW21816   1.503   7.558  10.956 -0.3317  0.1480  0.0520
 6792SOL    HW121817   1.582   7.586  10.908 -0.8382 -0.2932 -1.0765
 6792SOL    HW221818   1.517   7.465  10.972 -0.2826  0.2392  0.5455
 6793SOL     OW21819   1.064   0.863   2.128  0.4434  0.2803  0.2134
 6793SOL    HW121820   1.103   0.821   2.052 -2.1708  2.2367 -2.4368
 6793SOL    HW221821   0.990   0.807   2.152  0.3768  0.4336  0.3732
 6794SOL     OW21822   2.671   2.926  10.403 -0.3111  0.2068  0.2580
 6794SOL    HW121823   2.686   2.842  10.447  2.4866  1.0410  1.1437
 6794SOL    HW221824   2.592   2.961  10.443 -0.4529 -1.1718  1.2550
 6795SOL     OW21825   3.968   1.767   1.331 -0.2034  0.0388  0.0667
 6795SOL    HW121826   4.037   1.833   1.340  0.6428 -0.5210 -1.9264
 6795SOL    HW221827   3.961   1.728   1.418  1.8218  0.2905  0.3775
 6796SOL     OW21828   7.364   7.125   9.325 -0.1531  0.0332  0.2804
 6796SOL    HW121829   7.365   7.090   9.414  0.4387  2.4069  1.2846
 6796SOL    HW221830   7.288   7.184   9.323  0.1233  0.3808 -0.6158
 6797SOL     OW21831   2.049   0.625   4.559  0.0270  0.8495 -0.0513
 6797SOL    HW121832   1.991   0.645   4.632  1.6543  2.2503  0.9513
 6797SOL    HW221833   1.996   0.640   4.481 -1.7013 -0.4850  0.8048
 6798SOL     OW21834   7.390   2.905   2.414  0.1496 -0.8147  0.0355
 6798SOL    HW121835   7.439   2.905   2.332  1.8561 -1.7183  1.0088
 6798SOL    HW221836   7.449   2.945   2.478 -0.8122 -0.9144  1.0187
 6799SOL     OW21837   4.138   2.867   7.170  0.2407 -0.3011  0.1702
 6799SOL    HW121838   4.210   2.887   7.110  0.5497 -0.7508  0.3764
 6799SOL    HW221839   4.170   2.896   7.255 -0.7673  1.6513 -0.0823
 6800SOL     OW21840   3.547   2.297   0.917  0.5817 -0.0147 -0.1950
 6800SOL    HW121841   3.470   2.244   0.939  0.8433 -0.4110 -0.2174
 6800SOL    HW221842   3.523   2.341   0.835 -0.3205  1.3154  0.7493
 6801SOL     OW21843   2.931   4.529   4.914 -0.0057  0.0752  0.2533
 6801SOL    HW121844   2.958   4.462   4.851  0.3278  0.9575 -0.5531
 6801SOL    HW221845   2.835   4.522   4.917  0.0766 -1.1607  1.0109
 6802SOL     OW21846   6.662   5.058  12.048 -0.1375 -0.0178  0.1719
 6802SOL    HW121847   6.609   5.138  12.038 -0.8636 -0.5320 -0.1811
 6802SOL    HW221848   6.601   4.987  12.029 -0.1861 -0.8016  2.8654
 6803SOL     OW21849   6.283   7.320   7.664 -0.0656  0.3819  0.6430
 6803SOL    HW121850   6.243   7.403   7.635 -1.3378 -0.2523  0.5122
 6803SOL    HW221851   6.258   7.257   7.596 -1.4492 -0.7065  2.0936
 6804SOL     OW21852   2.083   2.941   4.867 -0.2296  0.3251 -0.2346
 6804SOL    HW121853   2.168   2.935   4.823 -0.9537  2.2315 -2.0762
 6804SOL    HW221854   2.103   2.981   4.952  0.8423 -0.4125 -0.1256
 6805SOL     OW21855   3.599   5.638  10.843 -0.4552  0.1040  0.8869
 6805SOL    HW121856   3.644   5.636  10.927 -0.3390  1.7130  0.9061
 6805SOL    HW221857   3.597   5.547  10.814  2.0153 -0.1656  1.3233
 6806SOL     OW21858   1.392   3.623   8.365 -0.0610  0.1717  0.0457
 6806SOL    HW121859   1.408   3.702   8.417  1.2248 -1.0825  1.6513
 6806SOL    HW221860   1.420   3.648   8.276  0.0493  1.6003  0.4424
 6807SOL     OW21861   6.561   5.674   6.771 -0.3233 -0.4699 -0.1711
 6807SOL    HW121862   6.581   5.701   6.861 -1.9042 -0.8677  0.3413
 6807SOL    HW221863   6.646   5.656   6.731  0.3630 -1.9815  1.7986
 6808SOL     OW21864   3.392   2.749   8.971 -0.6541  0.4151 -0.5122
 6808SOL    HW121865   3.362   2.759   9.062  1.5378  2.6726  0.0655
 6808SOL    HW221866   3.311   2.745   8.920 -1.9785  1.9139  1.3100
 6809SOL     OW21867   1.665   1.997   2.592  0.1638  0.1866  0.5412
 6809SOL    HW121868   1.643   2.076   2.543 -0.1475 -0.3130 -0.1481
 6809SOL    HW221869   1.749   1.969   2.555  0.7051  0.6630  1.3807
 6810SOL     OW21870   1.592   1.902   1.526  0.6245 -0.5949 -0.4108
 6810SOL    HW121871   1.554   1.972   1.473  1.8132 -0.6444 -1.3859
 6810SOL    HW221872   1.621   1.947   1.606  1.0547 -0.0281 -0.8739
 6811SOL     OW21873   3.762   5.825   9.524  0.0848 -0.0907 -0.2759
 6811SOL    HW121874   3.685   5.789   9.570 -0.2170 -0.8915 -1.3731
 6811SOL    HW221875   3.754   5.919   9.535 -2.0142 -0.0229 -1.7503
 6812SOL     OW21876   0.691   6.983   6.495 -0.0926 -0.2012  0.1439
 6812SOL    HW121877   0.627   7.015   6.558 -0.9567  1.2821 -1.4003
 6812SOL    HW221878   0.758   7.051   6.492  1.0227 -1.2216  0.9181
 6813SOL     OW21879   0.372   1.861  11.750 -0.9490  0.2955  0.3274
 6813SOL    HW121880   0.461   1.838  11.779 -1.0938 -1.2958 -0.4004
 6813SOL    HW221881   0.317   1.843  11.827 -0.6808  1.1787  0.7440
 6814SOL     OW21882   5.859   2.606   3.376  0.3635  0.2102  0.0895
 6814SOL    HW121883   5.874   2.646   3.291 -0.0811  0.1888 -0.0032
 6814SOL    HW221884   5.904   2.522   3.371  1.2953  0.6842  0.2828
 6815SOL     OW21885   6.063   5.264   5.886  0.1900 -0.3657  0.3335
 6815SOL    HW121886   5.994   5.232   5.827  1.4131  1.3030 -2.2111
 6815SOL    HW221887   6.116   5.187   5.906 -1.6557 -1.4357  1.3469
 6816SOL     OW21888   0.375   7.221   3.416 -0.5057 -0.0004 -0.1593
 6816SOL    HW121889   0.287   7.255   3.429  0.4227  2.4271  0.2845
 6816SOL    HW221890   0.401   7.254   3.329  0.9840  1.9197  0.9238
 6817SOL     OW21891   7.233   6.440  11.027  0.1186 -0.5994  0.6591
 6817SOL    HW121892   7.289   6.398  10.962 -0.5507 -3.0649  1.5823
 6817SOL    HW221893   7.292   6.496  11.077  0.8696  0.3839 -1.2180
 6818SOL     OW21894   7.867   6.950   1.870  0.1736  0.2848  0.3483
 6818SOL    HW121895   7.899   6.860   1.863 -0.3234  0.2602 -3.6625
 6818SOL    HW221896   7.944   7.004   1.853 -0.2397  0.4660 -1.0260
 6819SOL     OW21897   5.774   0.412  11.392  0.1381  0.4563 -0.6320
 6819SOL    HW121898   5.774   0.462  11.310  0.0492  0.5215 -0.5916
 6819SOL    HW221899   5.771   0.479  11.460  0.4909  0.4095 -0.5702
 6820SOL     OW21900   1.350   5.000   0.173  0.4692  0.5397  0.1543
 6820SOL    HW121901   1.306   4.958   0.247  0.2158 -1.1831 -0.9007
 6820SOL    HW221902   1.326   5.092   0.179 -0.7783  0.1724  1.3529
 6821SOL     OW21903   7.340   5.378   1.039 -0.1662 -0.1343  0.1029
 6821SOL    HW121904   7.314   5.306   1.096  0.3947 -1.3319 -1.1093
 6821SOL    HW221905   7.370   5.447   1.099 -1.0988 -0.7284  1.2988
 6822SOL     OW21906   7.551   6.448   8.581 -0.6832  0.0911 -0.2476
 6822SOL    HW121907   7.482   6.477   8.522  0.9383  0.7296 -1.9254
 6822SOL    HW221908   7.613   6.401   8.525 -0.9335 -2.7543  1.6137
 6823SOL     OW21909   3.829   1.346  10.367 -0.0914 -0.7920  0.5285
 6823SOL    HW121910   3.885   1.362  10.443 -0.5456 -0.3048  0.7686
 6823SOL    HW221911   3.741   1.338  10.403 -0.9987  3.4235 -0.1934
 6824SOL     OW21912   5.423   4.200   2.242  0.7866 -0.7503 -0.0362
 6824SOL    HW121913   5.422   4.296   2.248  1.0154 -0.8187  1.6292
 6824SOL    HW221914   5.451   4.182   2.152  1.9640  0.7485 -0.0221
 6825SOL     OW21915   5.856   1.716   6.931  0.4481 -0.0549  0.5468
 6825SOL    HW121916   5.839   1.643   6.872  1.5666  0.8650 -0.9818
 6825SOL    HW221917   5.771   1.732   6.974 -0.2237 -1.1682 -0.3132
 6826SOL     OW21918   6.502   7.789   6.702  0.4366  0.1755  0.2460
 6826SOL    HW121919   6.430   7.852   6.703 -1.1284 -1.5120  1.1311
 6826SOL    HW221920   6.547   7.804   6.619 -1.2979  0.9214 -0.5970
 6827SOL     OW21921   2.458   4.068   4.020  0.2382 -0.3434  0.5388
 6827SOL    HW121922   2.463   3.978   3.987  0.8961 -0.6026  1.3146
 6827SOL    HW221923   2.549   4.098   4.021  0.1068  0.0476  1.0517
 6828SOL     OW21924   6.332   5.882   0.810  0.0942  0.0892  0.2100
 6828SOL    HW121925   6.350   5.915   0.898  0.4939 -0.3344  0.2951
 6828SOL    HW221926   6.261   5.819   0.822  0.2128 -0.0388  0.2461
 6829SOL     OW21927   3.547   7.259   2.386 -0.0812  0.0663  0.2219
 6829SOL    HW121928   3.609   7.218   2.447  0.2542 -0.4555 -0.4593
 6829SOL    HW221929   3.573   7.351   2.385  1.4842 -0.3499 -0.9709
 6830SOL     OW21930   3.765   4.815   2.804 -0.3347 -0.2937 -0.2552
 6830SOL    HW121931   3.707   4.740   2.817  1.1460 -1.4785 -0.1697
 6830SOL    HW221932   3.714   4.891   2.832 -2.2676 -1.1125 -1.3857
 6831SOL     OW21933   5.419   7.634   7.642  0.0198 -0.2511  0.2007
 6831SOL    HW121934   5.430   7.653   7.736 -0.0105 -0.3064  0.2153
 6831SOL    HW221935   5.368   7.554   7.640 -2.3615  1.1901  0.1099
 6832SOL     OW21936   6.934   2.467  10.561  0.3478 -0.0949 -0.2498
 6832SOL    HW121937   6.969   2.433  10.644  0.9948 -1.9084 -1.2125
 6832SOL    HW221938   7.001   2.527  10.529 -0.8988  2.4575  1.5782
 6833SOL     OW21939   6.838   3.839   3.866 -0.6920  0.0731 -0.2329
 6833SOL    HW121940   6.788   3.758   3.859 -1.8217  0.7301 -0.0463
 6833SOL    HW221941   6.834   3.878   3.779  0.7395 -0.5548 -0.6066
 6834SOL     OW21942   1.332   1.881  11.952  0.1017  0.6112  0.0978
 6834SOL    HW121943   1.332   1.865  12.046  1.9818 -1.3387 -0.1376
 6834SOL    HW221944   1.252   1.838  11.920  0.2776 -0.1398  0.6367
 6835SOL     OW21945   5.503   0.786  11.535 -0.0080 -0.2426 -0.1846
 6835SOL    HW121946   5.530   0.697  11.511 -1.0029 -1.0053  1.3363
 6835SOL    HW221947   5.465   0.823  11.456 -0.0193 -1.3609 -0.7125
 6836SOL     OW21948   7.504   4.865  10.801 -0.1806 -0.8348  0.5980
 6836SOL    HW121949   7.547   4.904  10.877  3.2149 -2.2646 -0.3855
 6836SOL    HW221950   7.526   4.924  10.729 -0.6441 -1.1312  0.2134
 6837SOL     OW21951   7.306   7.033   2.165  0.1330  0.1990 -0.0220
 6837SOL    HW121952   7.303   7.121   2.203  2.4085 -0.2722  1.4816
 6837SOL    HW221953   7.254   6.979   2.224 -0.5092  0.3698 -0.4302
 6838SOL     OW21954   0.117   3.813   0.963  0.7601  0.2261 -0.7292
 6838SOL    HW121955   0.099   3.722   0.985  2.0442 -0.1105 -0.9991
 6838SOL    HW221956   0.080   3.863   1.037 -2.1834 -0.2702 -1.7497
 6839SOL     OW21957   6.946   1.698   8.537  0.1145  0.7846 -0.0927
 6839SOL    HW121958   6.861   1.729   8.568 -1.7631 -2.1544 -1.8517
 6839SOL    HW221959   6.997   1.685   8.616 -2.2399 -0.4105  1.3552
 6840SOL     OW21960   5.549   2.245   6.883  0.4487 -0.0675  0.1135
 6840SOL    HW121961   5.611   2.174   6.868 -2.8394 -2.9144 -1.1881
 6840SOL    HW221962   5.497   2.216   6.958 -0.9508  1.0322 -0.3972
 6841SOL     OW21963   4.366   7.590   7.691  0.1081 -0.4005 -0.4297
 6841SOL    HW121964   4.447   7.632   7.719 -0.2115  0.7887 -1.2264
 6841SOL    HW221965   4.388   7.552   7.605  0.2042 -1.3266 -0.0147
 6842SOL     OW21966   3.837   3.640   7.752  0.1301 -0.3635  0.6479
 6842SOL    HW121967   3.859   3.732   7.765 -0.3045 -0.1141 -0.2908
 6842SOL    HW221968   3.886   3.594   7.820  1.0497  0.4729  0.5792
 6843SOL     OW21969   5.845   0.207   9.346  0.2232 -0.1335 -0.0106
 6843SOL    HW121970   5.877   0.191   9.257  1.3186  0.3322  0.2827
 6843SOL    HW221971   5.798   0.126   9.369 -1.3852  0.2950 -1.5323
 6844SOL     OW21972   7.017   3.278   6.455 -0.0979  0.5628 -0.6353
 6844SOL    HW121973   7.045   3.351   6.511  1.9197  0.9801 -2.0510
 6844SOL    HW221974   7.050   3.200   6.500 -1.8535  0.5075  0.6470
 6845SOL     OW21975   6.728   0.915   4.346  0.5033 -0.0285  0.0669
 6845SOL    HW121976   6.727   0.867   4.263  1.3192 -0.9032  0.5402
 6845SOL    HW221977   6.645   0.963   4.348  0.3204 -0.2867 -1.0821
 6846SOL     OW21978   1.510   6.893   1.625  0.0803  0.7532  0.2817
 6846SOL    HW121979   1.498   6.988   1.628  1.2902  0.9390 -0.2706
 6846SOL    HW221980   1.604   6.880   1.637  0.2885 -0.2429 -1.9423
 6847SOL     OW21981   6.177   7.247   2.069  0.0812  0.0694 -0.6417
 6847SOL    HW121982   6.130   7.176   2.114  0.4814 -0.0840 -0.4572
 6847SOL    HW221983   6.240   7.201   2.013  0.3590  0.2769 -0.5019
 6848SOL     OW21984   6.839   2.135   5.292  0.0304 -0.0436 -0.0731
 6848SOL    HW121985   6.851   2.226   5.262 -1.3336  0.9376  2.1147
 6848SOL    HW221986   6.789   2.093   5.222  0.6026  0.8893 -1.0829
 6849SOL     OW21987   7.452   3.519   4.860  0.1286 -0.1071 -0.0478
 6849SOL    HW121988   7.417   3.481   4.780 -0.5779 -0.5763  0.4693
 6849SOL    HW221989   7.540   3.548   4.836  1.0280 -2.7757 -0.3004
 6850SOL     OW21990   5.697   4.789   9.894 -0.1826 -0.4440  0.6749
 6850SOL    HW121991   5.784   4.751   9.907  0.0451  0.5334  2.2151
 6850SOL    HW221992   5.714   4.875   9.855 -0.5164 -0.5752  0.2286
 6851SOL     OW21993   1.786   5.357   3.720 -0.0315 -0.3873 -0.0381
 6851SOL    HW121994   1.738   5.350   3.803  0.2009  0.0669  0.1382
 6851SOL    HW221995   1.737   5.421   3.669  1.5793  1.7946  1.0090
 6852SOL     OW21996   4.976   2.913   4.077  0.3666  0.3771 -0.3988
 6852SOL    HW121997   4.934   2.888   3.995 -0.2025 -0.4056  0.1151
 6852SOL    HW221998   4.956   2.841   4.137  0.0995  1.3005  0.6445
 6853SOL     OW21999   4.933   5.295   2.570  0.1046  0.8908  0.2648
 6853SOL    HW122000   5.020   5.260   2.592  0.0944  0.6243 -0.1197
 6853SOL    HW222001   4.872   5.225   2.594  0.1036  0.5292 -0.7410
 6854SOL     OW22002   7.309   1.880   8.921 -0.3281  0.1137  0.0726
 6854SOL    HW122003   7.215   1.866   8.929 -0.1061 -1.4629  0.2543
 6854SOL    HW222004   7.348   1.796   8.945  1.2153  1.2203  1.6915
 6855SOL     OW22005   4.959   3.146   3.605 -0.2931 -0.0781  0.0665
 6855SOL    HW122006   4.934   3.148   3.698  1.2279  0.2521  0.5084
 6855SOL    HW222007   5.054   3.134   3.607 -0.1040  0.9581 -1.4396
 6856SOL     OW22008   3.430   5.106   7.766 -0.2691  0.3349 -0.6642
 6856SOL    HW122009   3.439   5.195   7.800  0.5822 -0.2144  0.6161
 6856SOL    HW222010   3.431   5.117   7.671 -2.3275  1.8820 -0.5812
 6857SOL     OW22011   2.025   3.963  12.143  0.1571  0.7477  0.4233
 6857SOL    HW122012   1.996   4.036  12.197 -2.0100 -0.5198  1.1047
 6857SOL    HW222013   1.944   3.929  12.103  1.3189 -0.2345 -1.2327
 6858SOL     OW22014   5.073   0.098   6.886  0.0962 -0.5412  0.8971
 6858SOL    HW122015   5.049   0.174   6.833 -2.5106 -1.5094  0.5715
 6858SOL    HW222016   5.005   0.033   6.869  1.4671 -2.4628  2.2471
 6859SOL     OW22017   4.320   5.667   4.043  0.1130  0.2856  0.6292
 6859SOL    HW122018   4.384   5.612   3.997  0.0982 -0.2946  1.2952
 6859SOL    HW222019   4.374   5.729   4.093  0.1313  0.7806  0.0093
 6860SOL     OW22020   6.557   2.004   8.743 -0.6365  0.2763 -0.2766
 6860SOL    HW122021   6.599   2.061   8.808  0.8460 -1.2437  0.1575
 6860SOL    HW222022   6.545   1.921   8.789 -0.1696 -0.6266 -1.7518
 6861SOL     OW22023   6.057   0.588   8.437 -0.2440 -0.3505 -0.1985
 6861SOL    HW122024   6.045   0.495   8.458  0.2658 -0.5164 -0.6172
 6861SOL    HW222025   6.066   0.631   8.522 -0.0304 -0.7496 -0.0169
 6862SOL     OW22026   5.974   1.694   7.340 -0.5668 -0.2303 -0.4042
 6862SOL    HW122027   5.995   1.753   7.413 -0.4746 -1.2594  0.4367
 6862SOL    HW222028   5.974   1.750   7.263 -1.8360  1.1368  0.5193
 6863SOL     OW22029   2.519   5.717   0.186 -0.0032 -0.1648 -0.1922
 6863SOL    HW122030   2.486   5.643   0.135 -0.3324 -0.5671  0.5838
 6863SOL    HW222031   2.492   5.794   0.138  0.2141 -0.5429 -0.9374
 6864SOL     OW22032   6.394   7.431  11.927  0.4709 -0.1265  0.8230
 6864SOL    HW122033   6.369   7.441  12.019 -0.6545  2.5683  0.3146
 6864SOL    HW222034   6.489   7.441  11.926  0.9068 -3.0534  1.9256
 6865SOL     OW22035   1.323   2.073  11.011  0.0787 -0.2265  0.1096
 6865SOL    HW122036   1.369   2.041  11.089 -1.0180 -2.0438  0.0729
 6865SOL    HW222037   1.389   2.072  10.942  0.5045 -0.8521  0.5097
 6866SOL     OW22038   5.835   7.037   3.923 -0.0813 -0.1985  0.1842
 6866SOL    HW122039   5.817   7.131   3.932 -1.8690 -0.6842  2.6545
 6866SOL    HW222040   5.918   7.024   3.968 -0.5186  0.0444  1.1029
 6867SOL     OW22041   0.794   5.340  10.224  0.4282  0.1823  0.0056
 6867SOL    HW122042   0.732   5.313  10.156  0.2093 -0.1743  0.3456
 6867SOL    HW222043   0.830   5.423  10.192  1.1525 -0.5190 -1.0879
 6868SOL     OW22044   7.063   6.044   8.555 -1.0386 -0.6511 -0.0225
 6868SOL    HW122045   7.120   6.053   8.631 -2.5759 -3.1178  1.5504
 6868SOL    HW222046   7.019   5.960   8.568 -3.2549  0.0356 -2.3618
 6869SOL     OW22047   0.634   6.479  11.483 -0.1288  0.0489  0.1037
 6869SOL    HW122048   0.718   6.444  11.512  1.0719  1.3890 -1.6058
 6869SOL    HW222049   0.591   6.508  11.564  1.2803 -0.1217  0.9411
 6870SOL     OW22050   4.640   3.958   8.231  0.0405 -0.2968  0.0628
 6870SOL    HW122051   4.705   3.920   8.291 -0.9611 -0.5810  0.9977
 6870SOL    HW222052   4.557   3.948   8.277 -0.3265  3.0354  0.3850
 6871SOL     OW22053   1.642   0.342   8.908  0.4658 -0.0282  0.6186
 6871SOL    HW122054   1.557   0.337   8.864  0.8387  3.1369 -0.6843
 6871SOL    HW222055   1.620   0.354   9.001 -0.4290 -1.0527  0.5675
 6872SOL     OW22056   0.204   5.965   3.614 -0.2719  0.7990  0.6871
 6872SOL    HW122057   0.139   6.036   3.623 -0.3418  1.1229 -1.6412
 6872SOL    HW222058   0.152   5.885   3.618 -1.0036  1.0690 -1.7119
 6873SOL     OW22059   1.830   0.731   7.987  0.0268  0.1399  0.0628
 6873SOL    HW122060   1.823   0.825   7.972 -1.0962  0.1615  0.6225
 6873SOL    HW222061   1.740   0.702   8.003  0.5311 -0.7294  1.5450
 6874SOL     OW22062   4.887   6.669  11.547 -0.5445  0.4546 -0.1473
 6874SOL    HW122063   4.838   6.731  11.601  0.1637  0.4553  0.5272
 6874SOL    HW222064   4.822   6.629  11.491 -0.9282  2.2721 -1.0762
 6875SOL     OW22065   5.468   2.709   6.860  0.0765  0.0336  0.4005
 6875SOL    HW122066   5.402   2.647   6.891  0.8333 -1.4801 -0.8316
 6875SOL    HW222067   5.425   2.758   6.790  0.0936 -0.5899 -0.0528
 6876SOL     OW22068   1.269   2.866   6.172 -0.0754  0.2640  0.1416
 6876SOL    HW122069   1.267   2.776   6.141 -0.6935  0.1305  0.5580
 6876SOL    HW222070   1.177   2.892   6.177  0.1124  1.7167 -2.2215
 6877SOL     OW22071   4.353   7.885   2.195  0.7671  0.2271 -0.9949
 6877SOL    HW122072   4.286   7.842   2.248  2.4376 -0.6677  0.5038
 6877SOL    HW222073   4.399   7.942   2.257  0.6456  1.7784 -2.2650
 6878SOL     OW22074   4.455   1.901   2.684  0.1228  0.5414 -0.2590
 6878SOL    HW122075   4.400   1.898   2.605 -1.9355 -0.0420  1.1158
 6878SOL    HW222076   4.502   1.984   2.677 -0.1447  0.5811 -1.9979
 6879SOL     OW22077   2.296   2.234  12.191  0.0528  0.1493 -0.3697
 6879SOL    HW122078   2.224   2.281  12.234  1.8365  1.3469  1.4855
 6879SOL    HW222079   2.300   2.272  12.103 -0.7746  0.9842 -0.0660
 6880SOL     OW22080   2.280   4.596   3.256  0.1017 -0.0362 -0.7611
 6880SOL    HW122081   2.363   4.549   3.249 -0.7548 -1.7194 -0.1939
 6880SOL    HW222082   2.246   4.598   3.166 -0.0580 -0.9065 -0.7243
 6881SOL     OW22083   5.917   1.415  10.026  0.4771  0.0200  0.1172
 6881SOL    HW122084   5.857   1.341  10.021  0.9369 -0.3168 -0.6420
 6881SOL    HW222085   5.894   1.470   9.951 -0.0345  0.7977  0.8223
 6882SOL     OW22086   2.266   5.646   0.932  0.4077  0.1938  0.0151
 6882SOL    HW122087   2.173   5.660   0.912  0.3558 -0.3069 -0.0937
 6882SOL    HW222088   2.312   5.714   0.882  0.1928 -0.3141 -0.8832
 6883SOL     OW22089   6.435   4.581   2.130 -0.1477  0.0219 -0.4149
 6883SOL    HW122090   6.408   4.499   2.090  2.2006 -0.4148 -1.3034
 6883SOL    HW222091   6.433   4.564   2.224 -0.0819 -0.9342 -0.5758
 6884SOL     OW22092   4.833   0.691  11.901 -0.1444 -0.1798 -0.1676
 6884SOL    HW122093   4.794   0.778  11.890  0.4026  0.0541 -0.2898
 6884SOL    HW222094   4.840   0.680  11.996 -2.9861 -1.3531  0.0025
 6885SOL     OW22095   7.476   7.759   9.481  0.0064  0.6591  0.2924
 6885SOL    HW122096   7.557   7.750   9.432 -0.2513  3.3810 -0.8157
 6885SOL    HW222097   7.504   7.779   9.570  0.4663 -2.3685  0.9276
 6886SOL     OW22098   4.889   1.848   8.728  1.1859  0.0631  0.3695
 6886SOL    HW122099   4.929   1.761   8.736  0.7225 -0.1897  0.0079
 6886SOL    HW222100   4.810   1.843   8.782  1.6367  0.5608  1.0869
 6887SOL     OW22101   2.939   0.327  10.580 -0.4991  0.2344 -0.6548
 6887SOL    HW122102   2.901   0.353  10.664  1.0446 -1.0830  0.5048
 6887SOL    HW222103   3.025   0.291  10.602 -0.0797 -0.2254 -2.8026
 6888SOL     OW22104   7.769   7.299   3.919 -0.3735  0.7988 -0.0403
 6888SOL    HW122105   7.806   7.386   3.901 -0.7982  1.3241  1.4332
 6888SOL    HW222106   7.695   7.317   3.977 -0.2750 -0.5754  0.5475
 6889SOL     OW22107   1.852   0.261   6.713  0.4689  0.0665  0.4673
 6889SOL    HW122108   1.870   0.353   6.692 -1.5307  0.6209  0.8719
 6889SOL    HW222109   1.829   0.221   6.630  1.6744 -0.1721  0.2380
 6890SOL     OW22110   1.210   7.484   3.935 -0.5068 -0.1456 -0.3324
 6890SOL    HW122111   1.222   7.455   3.844 -2.3294 -0.0443 -0.6429
 6890SOL    HW222112   1.115   7.488   3.946 -0.3407 -1.2197  1.9261
 6891SOL     OW22113   6.614   5.429   8.042 -0.0537  0.6391  0.3425
 6891SOL    HW122114   6.533   5.437   7.991  0.6212 -0.1430 -0.9062
 6891SOL    HW222115   6.628   5.517   8.077 -1.4583  0.7756  0.6257
 6892SOL     OW22116   4.143   0.264   1.394 -0.0656  0.7959 -0.0191
 6892SOL    HW122117   4.123   0.273   1.487 -1.6255 -0.9163 -0.1376
 6892SOL    HW222118   4.059   0.243   1.353  1.0587 -1.4800 -1.3624
 6893SOL     OW22119   6.769   4.461   1.566 -0.2620 -0.4722 -0.1588
 6893SOL    HW122120   6.782   4.487   1.658  0.5699  1.2825 -0.7222
 6893SOL    HW222121   6.675   4.466   1.552 -0.1745  2.5045 -0.2282
 6894SOL     OW22122   1.131   1.032   3.972 -0.3625  0.3080  0.8130
 6894SOL    HW122123   1.189   1.107   3.987 -0.1489  0.0677  1.2232
 6894SOL    HW222124   1.054   1.052   4.025  0.2511 -0.3810  2.0157
 6895SOL     OW22125   5.236   6.439   5.914 -0.0414 -0.1337 -0.5037
 6895SOL    HW122126   5.248   6.529   5.945  0.8943 -0.3710 -0.1507
 6895SOL    HW222127   5.171   6.401   5.974 -0.8117  0.4418 -0.9519
 6896SOL     OW22128   5.278   3.588   5.514 -0.5717  0.3347  0.2415
 6896SOL    HW122129   5.303   3.651   5.447 -0.2209  0.9704  0.9573
 6896SOL    HW222130   5.189   3.612   5.539 -0.6245  0.2309  0.1529
 6897SOL     OW22131   1.818   7.316  10.978  0.2958 -0.2572 -0.4378
 6897SOL    HW122132   1.727   7.292  10.961  0.0774  1.4191 -1.8529
 6897SOL    HW222133   1.817   7.350  11.068 -0.5701  0.1832 -0.6054
 6898SOL     OW22134   7.293   7.378   5.909 -0.3401 -0.1537 -0.7914
 6898SOL    HW122135   7.378   7.421   5.913 -0.7322  0.9004 -2.8021
 6898SOL    HW222136   7.294   7.329   5.827 -1.4832 -0.5369 -0.6049
 6899SOL     OW22137   1.274   4.071   6.872  0.0672  0.1942  0.2608
 6899SOL    HW122138   1.334   4.005   6.906  0.9411  0.4777 -0.6882
 6899SOL    HW222139   1.317   4.154   6.889  1.1753  0.3126 -2.5842
 6900SOL     OW22140   2.298   3.068   2.040 -0.1074 -0.2363  0.1617
 6900SOL    HW122141   2.224   3.007   2.050  0.2474 -1.0672 -1.8488
 6900SOL    HW222142   2.259   3.154   2.051 -0.6744 -0.7408  2.7976
 6901SOL     OW22143   7.405   4.561  11.537 -0.4329  0.4258 -0.1582
 6901SOL    HW122144   7.497   4.578  11.557  0.3314 -2.3024 -0.8953
 6901SOL    HW222145   7.376   4.503  11.608 -0.8958 -0.5200 -1.0926
 6902SOL     OW22146   6.117   2.555  10.410  0.1255 -0.0963 -0.1376
 6902SOL    HW122147   6.060   2.479  10.397  1.5323 -0.8872 -2.0734
 6902SOL    HW222148   6.084   2.621  10.349 -2.1582  1.6532  2.6756
 6903SOL     OW22149   3.002   2.048  12.203  0.3913  0.0291 -0.5319
 6903SOL    HW122150   2.917   2.013  12.231  1.6046 -2.9475 -0.1696
 6903SOL    HW222151   3.048   1.971  12.169  3.4796  1.2371  0.6513
 6904SOL     OW22152   2.680   0.499  11.473  0.1548  0.0746  0.0828
 6904SOL    HW122153   2.766   0.523  11.506 -0.0381 -0.2274  0.8238
 6904SOL    HW222154   2.677   0.536  11.385  0.9799  0.2190  0.1061
 6905SOL     OW22155   6.799   1.586   5.128 -0.1628  0.4165  0.2360
 6905SOL    HW122156   6.833   1.525   5.193  1.2415  1.3270  0.3970
 6905SOL    HW222157   6.826   1.672   5.159 -0.9171  1.0084 -0.6932
 6906SOL     OW22158   1.490   0.283  10.805 -0.0947  0.0205 -0.1636
 6906SOL    HW122159   1.436   0.305  10.729  0.7521 -1.4873 -1.2438
 6906SOL    HW222160   1.495   0.187  10.804  1.6558  0.0662  0.5647
 6907SOL     OW22161   2.387   6.095   3.607  0.1501  0.4814  0.1209
 6907SOL    HW122162   2.363   6.003   3.616  2.5477 -0.1187  1.3089
 6907SOL    HW222163   2.430   6.117   3.689 -0.2538  2.6498 -0.1857
 6908SOL     OW22164   4.520   0.369   1.364  0.3871 -0.2643  0.2151
 6908SOL    HW122165   4.455   0.322   1.312  0.8564 -1.6266  0.8255
 6908SOL    HW222166   4.513   0.330   1.451  2.8058 -1.2509  0.0209
 6909SOL     OW22167   1.177   4.470  10.889  0.2293  0.1179  0.4051
 6909SOL    HW122168   1.264   4.457  10.850 -1.2415 -0.0189 -3.2383
 6909SOL    HW222169   1.135   4.384  10.883 -0.4683  0.3875  1.2890
 6910SOL     OW22170   3.836   3.265   2.929  0.2002 -0.1709 -0.6546
 6910SOL    HW122171   3.745   3.275   2.899 -0.1169 -0.6405  0.1312
 6910SOL    HW222172   3.842   3.319   3.008  0.2786 -1.0404 -0.0580
 6911SOL     OW22173   5.964   3.727  11.444  0.0651  0.7542 -0.3943
 6911SOL    HW122174   6.014   3.753  11.521 -0.5443  0.9304 -0.0548
 6911SOL    HW222175   5.977   3.632  11.439 -0.6165  0.6037  0.4544
 6912SOL     OW22176   4.232   4.188   0.309  0.1271 -0.4510 -0.5076
 6912SOL    HW122177   4.140   4.159   0.310 -0.2228  0.4458 -2.5381
 6912SOL    HW222178   4.278   4.118   0.263  0.0580  0.0907 -1.4232
 6913SOL     OW22179   3.573   2.364   3.557  0.2510 -0.1801 -0.2758
 6913SOL    HW122180   3.525   2.423   3.616  1.2201 -0.1357  0.4883
 6913SOL    HW222181   3.622   2.422   3.500  2.7984 -0.1565  1.7751
 6914SOL     OW22182   0.506   5.633   6.858  0.1294 -0.2175 -0.1434
 6914SOL    HW122183   0.572   5.689   6.899  3.8558 -1.6099 -3.5637
 6914SOL    HW222184   0.524   5.545   6.892  0.1540 -0.6397 -1.2145
 6915SOL     OW22185   0.827   3.849   2.468  0.0000  0.6027  0.2809
 6915SOL    HW122186   0.884   3.775   2.488 -0.4119  0.5198  1.1818
 6915SOL    HW222187   0.865   3.922   2.518 -0.1334  0.7805  0.1257
 6916SOL     OW22188   3.890   6.425   4.008  0.1207  0.1126 -0.1848
 6916SOL    HW122189   3.846   6.354   3.962  1.1495 -1.0010  0.4748
 6916SOL    HW222190   3.980   6.423   3.974  1.7179 -2.4685  3.4989
 6917SOL     OW22191   2.124   4.558   9.836  0.1394 -0.2058  0.2095
 6917SOL    HW122192   2.108   4.652   9.838 -1.4597 -0.4367 -0.1867
 6917SOL    HW222193   2.066   4.522   9.903 -0.4540 -1.0347 -0.7163
 6918SOL     OW22194   0.563   6.263  11.797 -0.3340 -0.3737  0.2460
 6918SOL    HW122195   0.602   6.350  11.797 -3.4045  1.1526 -0.6182
 6918SOL    HW222196   0.570   6.233  11.888  3.0768 -0.4790  0.0651
 6919SOL     OW22197   0.071   0.018   7.734  0.1377 -0.0834  0.2609
 6919SOL    HW122198   0.159   0.054   7.743 -0.3589  1.0796  0.5992
 6919SOL    HW222199   0.061   0.005   7.640 -0.1218  1.9016 -0.0291
 6920SOL     OW22200   1.612   3.494   8.472  0.2601  0.0776  0.2120
 6920SOL    HW122201   1.541   3.543   8.430  0.0922  0.1745  0.6012
 6920SOL    HW222202   1.613   3.410   8.427 -0.7654 -0.3042  0.8598
 6921SOL     OW22203   7.089   4.108  10.910 -0.6570 -0.0087  0.1722
 6921SOL    HW122204   7.100   4.064  10.826 -1.8584  0.8965 -0.4790
 6921SOL    HW222205   7.132   4.049  10.973 -0.3740 -1.0524 -0.9505
 6922SOL     OW22206   6.318   3.238   2.103  0.3246  0.6038 -0.7771
 6922SOL    HW122207   6.236   3.278   2.133  0.1857  0.5529 -1.0818
 6922SOL    HW222208   6.294   3.191   2.024  0.4732 -0.1243 -0.4054
 6923SOL     OW22209   4.120   1.666   4.228  0.0584 -0.8595 -0.5392
 6923SOL    HW122210   4.070   1.599   4.274  0.5761 -1.4609 -0.8412
 6923SOL    HW222211   4.124   1.739   4.290 -1.2170 -0.7716 -0.5316
 6924SOL     OW22212   5.882   0.438   6.462  0.3579  0.1373  0.0548
 6924SOL    HW122213   5.927   0.452   6.379 -0.8243  0.1611 -0.6149
 6924SOL    HW222214   5.840   0.352   6.452 -0.4201  0.4727  0.3218
 6925SOL     OW22215   6.022   7.886   1.010  0.6746  0.0456  0.4221
 6925SOL    HW122216   6.107   7.918   0.980  0.8723 -0.8681 -0.0537
 6925SOL    HW222217   5.982   7.960   1.054 -0.0402  1.8698 -2.9304
 6926SOL     OW22218   5.005   4.039  11.139 -0.1057  0.4362 -0.2905
 6926SOL    HW122219   4.923   4.013  11.181  0.3512 -2.6063 -1.0546
 6926SOL    HW222220   5.052   4.089  11.206 -0.8026 -1.4385  1.7017
 6927SOL     OW22221   5.453   1.754  11.035 -0.3139  0.2565  0.1385
 6927SOL    HW122222   5.524   1.815  11.055 -1.2487  0.9430  1.4473
 6927SOL    HW222223   5.434   1.769  10.942 -0.1691  1.5800  0.3041
 6928SOL     OW22224   4.066   7.938   3.842  0.2927 -0.1758 -0.1153
 6928SOL    HW122225   3.992   7.977   3.796  0.1522 -0.4444 -0.1185
 6928SOL    HW222226   4.125   8.011   3.859  0.7233 -0.2066 -1.4294
 6929SOL     OW22227   7.305   7.943   5.425  0.0903  0.8404  0.5947
 6929SOL    HW122228   7.257   7.919   5.346 -1.1027  1.9014  0.9626
 6929SOL    HW222229   7.257   7.900   5.496  1.0727  0.0025  0.7735
 6930SOL     OW22230   6.693   0.759   2.777 -0.2447 -0.2203  0.4942
 6930SOL    HW122231   6.611   0.743   2.730 -1.8044  0.3914  2.8033
 6930SOL    HW222232   6.715   0.675   2.817  0.5114 -0.4854 -0.4498
 6931SOL     OW22233   6.397   7.778  11.412 -0.6410 -0.0275  0.0712
 6931SOL    HW122234   6.466   7.835  11.447 -1.0206  0.8449 -0.5458
 6931SOL    HW222235   6.325   7.786  11.474  0.4541 -2.5098  1.8147
 6932SOL     OW22236   7.090   4.675   8.612 -0.2550 -0.0983 -0.0088
 6932SOL    HW122237   7.124   4.707   8.529  0.4193  0.0093  0.3030
 6932SOL    HW222238   7.116   4.583   8.616 -0.3730 -0.1302  0.0375
 6933SOL     OW22239   0.519   7.201   7.019 -0.0989  0.6040  0.5432
 6933SOL    HW122240   0.573   7.270   6.979 -0.0007  0.5667  0.6135
 6933SOL    HW222241   0.430   7.238   7.020 -0.0471  0.7267  0.5755
 6934SOL     OW22242   4.938   0.717   7.294  0.2625  0.4109  0.1257
 6934SOL    HW122243   4.849   0.725   7.329  0.4720  1.9421  0.3924
 6934SOL    HW222244   4.989   0.681   7.366  0.0132  0.3052  0.2510
 6935SOL     OW22245   3.556   1.778   8.641 -0.3341  0.3078  0.0606
 6935SOL    HW122246   3.602   1.853   8.603  0.3707 -0.2762 -0.2398
 6935SOL    HW222247   3.536   1.722   8.566 -1.1945  0.3606  0.2357
 6936SOL     OW22248   5.547   7.352   3.815 -0.2911  0.6858 -0.5842
 6936SOL    HW122249   5.603   7.275   3.820 -1.3801 -0.0433  0.8321
 6936SOL    HW222250   5.589   7.417   3.871 -1.1539 -0.0865  1.0169
 6937SOL     OW22251   1.988   7.948   4.097 -0.0607  0.3400 -0.1502
 6937SOL    HW122252   1.984   7.889   4.022  0.3667 -0.4111  0.4068
 6937SOL    HW222253   2.074   7.990   4.090  0.5272 -0.6851  0.6050
 6938SOL     OW22254   6.586   4.560   2.995  0.0728 -0.0781  0.2538
 6938SOL    HW122255   6.534   4.527   2.922  1.7123  0.6594 -1.3325
 6938SOL    HW222256   6.526   4.563   3.069 -2.2641  1.1204 -1.5587
 6939SOL     OW22257   5.888   1.305   0.848 -0.0243 -0.1168  0.0326
 6939SOL    HW122258   5.910   1.212   0.837 -2.5117 -0.7421 -0.1246
 6939SOL    HW222259   5.800   1.305   0.884  0.6510  2.2112  1.9124
 6940SOL     OW22260   2.431   1.906  11.422 -0.2450 -0.2675 -0.0989
 6940SOL    HW122261   2.443   1.835  11.485  2.2759 -0.1684 -0.3665
 6940SOL    HW222262   2.518   1.919  11.384 -0.7615  2.5488 -0.5102
 6941SOL     OW22263   6.191   4.292  10.216  0.0003  0.2792 -0.1399
 6941SOL    HW122264   6.219   4.244  10.294 -0.2073  0.2080 -0.1096
 6941SOL    HW222265   6.267   4.288  10.157 -0.3126 -0.8393 -0.4953
 6942SOL     OW22266   0.813   0.061   2.786 -0.1726  0.1499  0.3663
 6942SOL    HW122267   0.752  -0.012   2.792 -0.0798  0.1226  0.9629
 6942SOL    HW222268   0.780   0.126   2.849  0.6148 -0.0153  0.9614
 6943SOL     OW22269   0.033   6.740   3.700 -0.5784 -0.5268 -0.6047
 6943SOL    HW122270   0.079   6.706   3.623 -0.7109  0.8144 -1.2955
 6943SOL    HW222271   0.069   6.689   3.773  2.4314  0.7952 -1.0250
 6944SOL     OW22272   2.513   5.694   1.510  0.1069 -0.0213  0.2643
 6944SOL    HW122273   2.430   5.667   1.549  1.1857 -1.5478  1.6169
 6944SOL    HW222274   2.579   5.642   1.555  1.8701  1.4914 -0.4349
 6945SOL     OW22275   6.512   3.596  11.679 -0.0839  0.4614  0.0661
 6945SOL    HW122276   6.481   3.664  11.619 -1.2068 -0.0444  0.0407
 6945SOL    HW222277   6.435   3.574  11.731  0.6257  0.1891  1.0253
 6946SOL     OW22278   1.861   2.926   4.612  0.4487 -0.0366 -0.1354
 6946SOL    HW122279   1.876   2.831   4.610  1.2594  0.0946 -0.8817
 6946SOL    HW222280   1.916   2.957   4.683  0.4064 -0.0927 -0.0777
 6947SOL     OW22281   6.979   0.854   7.217  0.3441 -0.3718  0.1865
 6947SOL    HW122282   6.887   0.877   7.216  0.8260  1.7094 -0.4039
 6947SOL    HW222283   6.983   0.775   7.271 -1.9950 -1.7006 -1.4014
 6948SOL     OW22284   4.682   3.069   8.086 -0.0039 -0.0882  0.4758
 6948SOL    HW122285   4.606   3.017   8.059 -1.1980  1.2862  1.0682
 6948SOL    HW222286   4.718   3.101   8.004 -1.8420  1.6282  0.2566
 6949SOL     OW22287   2.251   1.775  10.477  0.4942 -0.0068  0.4334
 6949SOL    HW122288   2.216   1.756  10.564 -0.3981 -0.3667  0.0092
 6949SOL    HW222289   2.287   1.863  10.484  0.5522 -0.0895  1.2047
 6950SOL     OW22290   0.184   5.209   3.129 -0.3015 -0.2419 -0.0350
 6950SOL    HW122291   0.114   5.260   3.171  0.0357  0.5349 -0.3948
 6950SOL    HW222292   0.176   5.122   3.167 -0.7450  0.1392  0.7695
 6951SOL     OW22293   0.336   5.738   1.401  0.0623  0.3710 -0.0949
 6951SOL    HW122294   0.407   5.792   1.436 -0.9805  2.8036 -1.4995
 6951SOL    HW222295   0.371   5.648   1.404  1.9433  1.0625  2.1616
 6952SOL     OW22296   2.267   1.944   4.771  0.4335  0.3728 -0.3356
 6952SOL    HW122297   2.183   1.927   4.729 -0.0337 -0.7091  0.9844
 6952SOL    HW222298   2.330   1.893   4.720  0.4632  1.7736 -1.7941
 6953SOL     OW22299   7.741   6.864   3.062  0.2215  0.4755 -0.0767
 6953SOL    HW122300   7.788   6.795   3.017 -1.9335 -0.3907 -1.1387
 6953SOL    HW222301   7.809   6.926   3.090  2.1161 -1.5681  0.1048
 6954SOL     OW22302   7.510   1.434   6.813  0.7290 -0.2170  0.0355
 6954SOL    HW122303   7.591   1.405   6.770  0.6663  0.5084 -0.5954
 6954SOL    HW222304   7.538   1.499   6.877  0.7797 -1.0112  0.8437
 6955SOL     OW22305   4.839   6.668   6.657  0.1814 -0.1525 -0.0237
 6955SOL    HW122306   4.792   6.746   6.627 -0.6712 -0.5909  0.1598
 6955SOL    HW222307   4.775   6.620   6.709  1.4596  0.3901  2.1993
 6956SOL     OW22308   1.207   5.849   8.474  0.3156  0.5420  0.1653
 6956SOL    HW122309   1.153   5.916   8.433 -1.1746 -1.1246 -0.7130
 6956SOL    HW222310   1.168   5.835   8.560 -0.0335  0.0904 -0.0591
 6957SOL     OW22311   7.805   2.143   8.763  0.1447 -0.8971 -0.6744
 6957SOL    HW122312   7.723   2.189   8.747 -0.0147 -0.4050  1.3007
 6957SOL    HW222313   7.784   2.051   8.752 -1.2961 -0.9725  1.8553
 6958SOL     OW22314   7.750   0.262   5.009  0.4110  0.4619 -0.4850
 6958SOL    HW122315   7.838   0.226   4.997 -0.3107 -0.9045 -2.0685
 6958SOL    HW222316   7.737   0.320   4.934  0.2321  1.2830  0.1673
 6959SOL     OW22317   7.366   1.253   2.793 -0.6292  0.3504 -0.3460
 6959SOL    HW122318   7.322   1.169   2.804 -1.0652  0.5856 -0.2487
 6959SOL    HW222319   7.407   1.249   2.707  1.7796 -1.0532  0.7482
 6960SOL     OW22320   6.248   4.913  10.858  0.5574 -0.3790  1.0714
 6960SOL    HW122321   6.295   4.959  10.788  1.0444 -1.1320  0.8944
 6960SOL    HW222322   6.232   4.826  10.823  0.0523 -0.4983  1.5824
 6961SOL     OW22323   5.480   3.842   4.559 -0.1037 -0.0475 -0.9668
 6961SOL    HW122324   5.432   3.760   4.543  2.2659 -1.5222 -1.0453
 6961SOL    HW222325   5.481   3.852   4.654 -0.1119 -0.3137 -0.9384
 6962SOL     OW22326   7.356   3.597   3.718  0.2170  0.3114  0.0850
 6962SOL    HW122327   7.324   3.584   3.629 -1.8292 -0.9399  0.9256
 6962SOL    HW222328   7.451   3.585   3.712  0.0209 -0.5843 -1.7805
 6963SOL     OW22329   6.034   0.613   0.399  0.0318  0.2376  0.0380
 6963SOL    HW122330   5.998   0.615   0.310  0.6428  1.9847 -0.1931
 6963SOL    HW222331   6.003   0.694   0.440  2.1761  0.9151  0.4297
 6964SOL     OW22332   2.951   7.930   4.841  0.0674 -0.0592 -0.4366
 6964SOL    HW122333   2.871   7.898   4.797  0.5107 -1.6966 -0.1120
 6964SOL    HW222334   3.013   7.859   4.832  1.4696  1.1389 -0.5355
 6965SOL     OW22335   1.483   1.047   1.129  0.6539  0.3360  0.3420
 6965SOL    HW122336   1.466   1.014   1.218  0.5161  1.6959  0.8364
 6965SOL    HW222337   1.540   0.980   1.090 -0.5162 -1.0559  0.8997
 6966SOL     OW22338   3.827   4.522   7.144  0.0427 -0.1660  0.7519
 6966SOL    HW122339   3.778   4.556   7.219 -0.8489  1.4791 -0.5294
 6966SOL    HW222340   3.909   4.571   7.146  0.5800 -1.0591  1.3770
 6967SOL     OW22341   1.062   2.739   6.752 -0.3103  0.2939  0.1485
 6967SOL    HW122342   1.087   2.652   6.722  0.5298  0.7569 -0.5645
 6967SOL    HW222343   1.087   2.741   6.844 -1.6713 -0.6956  0.5572
 6968SOL     OW22344   2.077   0.789   4.088 -0.3571  0.7807  0.1136
 6968SOL    HW122345   2.049   0.711   4.136 -1.6303 -0.4142 -2.3606
 6968SOL    HW222346   2.152   0.822   4.137 -0.3882 -1.4261  1.7908
 6969SOL     OW22347   0.060   0.716   7.769  0.4438 -0.2808 -0.2679
 6969SOL    HW122348   0.155   0.723   7.769  0.5511 -1.4437 -0.9629
 6969SOL    HW222349   0.042   0.634   7.724 -0.9175  0.2789 -0.8140
 6970SOL     OW22350   7.749   6.229  11.528 -0.8962  0.2532  0.0204
 6970SOL    HW122351   7.716   6.141  11.510  1.6264 -0.7068 -0.2532
 6970SOL    HW222352   7.792   6.221  11.613  0.1951  0.9655 -0.4532
 6971SOL     OW22353   1.187   6.790   6.333 -0.2543  0.1932 -0.2623
 6971SOL    HW122354   1.113   6.850   6.321 -1.1280 -0.9489 -0.7546
 6971SOL    HW222355   1.159   6.729   6.401  0.2830 -0.1899 -0.3732
 6972SOL     OW22356   2.303   5.151   9.719  0.7860  0.6744  0.0883
 6972SOL    HW122357   2.360   5.097   9.774 -0.6436 -0.4708  0.5472
 6972SOL    HW222358   2.301   5.236   9.762  1.4037  0.4512  0.5777
 6973SOL     OW22359   6.506   2.133   2.655  0.2611 -1.1147 -0.1259
 6973SOL    HW122360   6.526   2.189   2.579 -0.8299 -1.2976 -0.5590
 6973SOL    HW222361   6.569   2.161   2.722 -0.6444  1.0717 -0.1138
 6974SOL     OW22362   6.531   0.849   0.403  0.1066 -0.4307  0.0102
 6974SOL    HW122363   6.439   0.860   0.380  0.1123  1.4289  0.6608
 6974SOL    HW222364   6.530   0.832   0.497  0.4223  0.1131  0.1219
 6975SOL     OW22365   3.789   6.093  10.517 -0.3048  0.1700  0.0931
 6975SOL    HW122366   3.855   6.024  10.511 -0.5023 -0.0062 -0.0766
 6975SOL    HW222367   3.839   6.173  10.534  0.1457  0.4151 -2.1170
 6976SOL     OW22368   3.223   7.700   0.139 -0.1122 -0.0961  0.0500
 6976SOL    HW122369   3.238   7.759   0.213 -0.7012 -1.4628  1.3152
 6976SOL    HW222370   3.151   7.645   0.167  1.2958 -2.3302 -0.5085
 6977SOL     OW22371   6.072   3.708   9.643 -0.0717 -0.2452  0.3930
 6977SOL    HW122372   6.044   3.713   9.552 -0.6045  3.0514  0.6109
 6977SOL    HW222373   6.162   3.742   9.643 -0.3686  0.5868  1.1500
 6978SOL     OW22374   7.804   5.683   5.252  0.2687 -0.5625  0.0210
 6978SOL    HW122375   7.862   5.609   5.236  0.8385 -0.1262  0.0528
 6978SOL    HW222376   7.853   5.740   5.312 -0.6969 -0.8006  1.0674
 6979SOL     OW22377   7.310   0.339   1.486 -0.2915  0.2550 -0.0256
 6979SOL    HW122378   7.228   0.350   1.534  0.3013 -1.1452  1.3982
 6979SOL    HW222379   7.300   0.393   1.408 -3.2204 -1.1047 -0.7120
 6980SOL     OW22380   6.654   7.408   1.718 -0.0935 -0.0688 -0.6657
 6980SOL    HW122381   6.604   7.475   1.672 -1.6715 -1.4018 -0.9892
 6980SOL    HW222382   6.621   7.411   1.808  0.0138 -0.2175 -0.6203
 6981SOL     OW22383   2.890   4.325  10.982  0.8819 -0.4518  0.2014
 6981SOL    HW122384   2.836   4.266  11.034  0.1878 -0.3330 -0.3648
 6981SOL    HW222385   2.828   4.368  10.922  1.4254  0.5731  0.3481
 6982SOL     OW22386   5.751   0.803   7.625 -0.5096  0.1343  0.6545
 6982SOL    HW122387   5.818   0.797   7.693 -1.0295  0.5807  1.2173
 6982SOL    HW222388   5.707   0.886   7.641  0.0801  0.7968 -0.9153
 6983SOL     OW22389   4.892   1.585  10.957 -0.7079 -0.4138  0.3087
 6983SOL    HW122390   4.860   1.616  10.872 -0.5662 -0.2350  0.3191
 6983SOL    HW222391   4.813   1.579  11.011 -0.9236 -1.3632 -0.0827
 6984SOL     OW22392   5.946   6.498   9.601 -0.2347  0.1609  0.6368
 6984SOL    HW122393   5.858   6.535   9.606  0.7223  2.5153  1.2184
 6984SOL    HW222394   5.974   6.492   9.692  1.1661  2.0105  0.3827
 6985SOL     OW22395   4.732   2.395  10.352  0.0621 -0.0935  0.4301
 6985SOL    HW122396   4.825   2.418  10.344 -0.4817  2.4200  0.7052
 6985SOL    HW222397   4.731   2.325  10.418  1.6863  0.5218  1.1671
 6986SOL     OW22398   5.220   5.278   4.676  0.1741  0.0617  0.0359
 6986SOL    HW122399   5.272   5.202   4.705 -0.1954 -0.2997 -0.2447
 6986SOL    HW222400   5.165   5.299   4.751  0.7240  0.4495  0.3374
 6987SOL     OW22401   2.752   6.641   1.921 -0.1021 -0.2696  0.1101
 6987SOL    HW122402   2.725   6.723   1.962  0.0541 -0.5204  0.7254
 6987SOL    HW222403   2.704   6.639   1.838 -3.6691 -1.6382  1.9829
 6988SOL     OW22404   0.665   5.654  10.458  0.3088  0.0867 -0.5599
 6988SOL    HW122405   0.626   5.738  10.434  0.8762 -0.2959 -3.0314
 6988SOL    HW222406   0.592   5.592  10.453 -0.1211  0.3604  1.3120
 6989SOL     OW22407   1.046   6.045   8.366 -0.7170 -0.5055 -0.3151
 6989SOL    HW122408   1.071   6.126   8.412 -0.0999 -1.6636  1.5160
 6989SOL    HW222409   0.951   6.049   8.360 -1.1606 -1.3310  3.3881
 6990SOL     OW22410   6.806   0.172   4.003  0.1134 -0.6910 -0.1453
 6990SOL    HW122411   6.896   0.204   3.999  0.1385 -0.7233  0.2055
 6990SOL    HW222412   6.753   0.251   4.014  0.0868 -0.6597 -0.4758
 6991SOL     OW22413   2.490   7.108   0.976 -0.3568 -0.5121 -0.3710
 6991SOL    HW122414   2.532   7.172   1.033 -1.3807  0.3918 -0.5762
 6991SOL    HW222415   2.543   7.108   0.896  0.5148 -1.0490  0.1981
 6992SOL     OW22416   0.925   7.855   2.968 -0.2093  0.2526  0.9764
 6992SOL    HW122417   0.947   7.890   2.881  1.5072 -1.2614  0.7356
 6992SOL    HW222418   0.941   7.928   3.028  1.2779  0.5356  0.2861
 6993SOL     OW22419   3.410   5.261   2.135  0.3054 -0.0273  0.2670
 6993SOL    HW122420   3.469   5.325   2.176 -0.5138  0.8965  0.0551
 6993SOL    HW222421   3.354   5.231   2.206 -2.0994  2.6711 -0.2964
 6994SOL     OW22422   4.893   6.799   0.361 -0.2931  0.1088 -0.1180
 6994SOL    HW122423   4.972   6.758   0.397 -0.0674  1.4087  0.9344
 6994SOL    HW222424   4.825   6.779   0.425 -0.2210  1.1908  0.3123
 6995SOL     OW22425   1.083   3.773   7.787 -0.1268 -0.2253  0.2679
 6995SOL    HW122426   1.157   3.822   7.822 -0.9007 -0.5727  2.5238
 6995SOL    HW222427   1.050   3.828   7.715  2.2462 -0.0600 -0.8091
 6996SOL     OW22428   5.446   3.868  11.889  0.3287 -0.4426 -0.5060
 6996SOL    HW122429   5.408   3.919  11.817 -0.6270  0.5045  0.6268
 6996SOL    HW222430   5.502   3.930  11.936  0.9000 -1.0327 -0.3997
 6997SOL     OW22431   2.910   0.810   4.832  0.0985  0.3640 -0.0710
 6997SOL    HW122432   2.949   0.846   4.911  1.9828  0.4223 -0.9890
 6997SOL    HW222433   2.946   0.722   4.825 -1.0672 -0.1257 -0.1998
 6998SOL     OW22434   4.980   3.752   9.552  0.4183  0.2869 -0.0255
 6998SOL    HW122435   5.026   3.770   9.470  0.5877 -0.4093 -0.0892
 6998SOL    HW222436   4.997   3.830   9.606  0.7792  0.5023 -0.4377
 6999SOL     OW22437   7.947   3.243   4.616  0.7779 -0.2355 -0.1151
 6999SOL    HW122438   7.973   3.168   4.563 -1.0103 -0.9113 -0.1095
 6999SOL    HW222439   8.012   3.311   4.595  2.7510 -1.8977  0.2703
 7000SOL     OW22440   7.120   1.490   6.911 -0.1775 -0.6243  0.2393
 7000SOL    HW122441   7.034   1.529   6.902 -0.0037 -0.2346  0.2316
 7000SOL    HW222442   7.143   1.462   6.822 -0.0321 -0.1588  0.1283
 7001SOL     OW22443   3.721   6.427   9.683 -0.0536 -0.5820  0.5031
 7001SOL    HW122444   3.704   6.520   9.668  1.8972 -0.5345 -2.0032
 7001SOL    HW222445   3.717   6.387   9.596 -0.7960 -2.8792  1.5139
 7002SOL     OW22446   5.882   6.143   8.931 -0.0191 -0.7725  0.3800
 7002SOL    HW122447   5.866   6.053   8.904  0.0488 -1.3555  2.1048
 7002SOL    HW222448   5.963   6.138   8.983 -0.0942  0.2451  0.6156
 7003SOL     OW22449   7.027   3.779  10.081  0.9824  0.5788 -0.0989
 7003SOL    HW122450   7.107   3.765  10.132  0.0734  1.6683  1.7591
 7003SOL    HW222451   7.018   3.875  10.077  0.3354  0.4871 -1.2126
 7004SOL     OW22452   3.919   0.673   7.262 -0.2574  0.6603 -0.7321
 7004SOL    HW122453   3.874   0.650   7.343  1.2480 -0.4487 -0.1758
 7004SOL    HW222454   3.850   0.708   7.206 -1.7211 -0.5399  0.2452
 7005SOL     OW22455   3.860   1.887   9.753 -0.6144  0.6237  0.0622
 7005SOL    HW122456   3.942   1.898   9.705 -1.0516 -1.4793 -1.2943
 7005SOL    HW222457   3.875   1.811   9.808 -1.9360 -0.4501 -0.9834
 7006SOL     OW22458   2.037   6.566   9.424  0.0130 -0.0210  0.0553
 7006SOL    HW122459   1.976   6.579   9.351 -0.6051 -2.2006  0.1270
 7006SOL    HW222460   1.981   6.546   9.499  0.7416 -0.1160  0.5846
 7007SOL     OW22461   7.510   7.948   8.237  0.2310  0.0663 -0.2521
 7007SOL    HW122462   7.459   7.899   8.172 -0.4404 -2.1923  1.8215
 7007SOL    HW222463   7.478   7.915   8.322  1.7764  2.1305  1.2243
 7008SOL     OW22464   1.604   5.349   4.376  0.3665 -0.4146  0.3350
 7008SOL    HW122465   1.572   5.426   4.423  1.8257  0.9778 -0.8532
 7008SOL    HW222466   1.532   5.326   4.318  0.1736  0.5037  0.1882
 7009SOL     OW22467   4.198   2.479   8.795  0.3277  0.0840  0.4265
 7009SOL    HW122468   4.138   2.515   8.861 -0.5421 -0.1768 -0.1950
 7009SOL    HW222469   4.140   2.435   8.733  1.1067  0.5568 -0.6539
 7010SOL     OW22470   1.953   0.235   1.902 -0.5595  0.0021  0.2592
 7010SOL    HW122471   1.936   0.267   1.991 -0.6236  2.4506 -0.5621
 7010SOL    HW222472   2.034   0.184   1.910  1.5302  3.2058  1.1830
 7011SOL     OW22473   5.744   5.552   9.702 -0.4814  0.0601 -0.7087
 7011SOL    HW122474   5.710   5.474   9.658  0.2440 -0.5664 -0.1839
 7011SOL    HW222475   5.790   5.601   9.633  1.4047 -1.3521 -0.5145
 7012SOL     OW22476   5.656   2.911   0.967 -0.2379 -0.6297  0.1215
 7012SOL    HW122477   5.574   2.957   0.951  0.7186  1.3344  0.5045
 7012SOL    HW222478   5.664   2.910   1.063 -0.4229 -1.9813  0.1342
 7013SOL     OW22479   1.879   6.054   3.350  0.0328  0.3484  0.0127
 7013SOL    HW122480   1.932   5.998   3.293 -2.1854  0.3419 -2.2293
 7013SOL    HW222481   1.846   5.995   3.417 -0.5300 -0.6178 -1.0712
 7014SOL     OW22482   0.514   0.306   1.691 -0.4566 -0.5337  0.0487
 7014SOL    HW122483   0.558   0.229   1.656 -2.4037 -0.5997 -2.5478
 7014SOL    HW222484   0.443   0.271   1.745 -0.3463 -0.5304  0.1954
 7015SOL     OW22485   6.200   4.460   1.719 -0.0777  0.0676  0.4412
 7015SOL    HW122486   6.207   4.556   1.726  0.0274 -0.0561  2.6413
 7015SOL    HW222487   6.127   4.446   1.659  0.1898  1.5230 -0.2717
 7016SOL     OW22488   0.206   6.904   9.716 -0.0501 -0.3030  0.6898
 7016SOL    HW122489   0.257   6.968   9.766 -1.0636  2.0040 -1.0562
 7016SOL    HW222490   0.263   6.881   9.643 -0.0805 -0.6236  0.7664
 7017SOL     OW22491   7.377   4.613   7.474 -0.5878  0.1996 -0.0056
 7017SOL    HW122492   7.365   4.699   7.513  1.8736 -0.0877  1.6549
 7017SOL    HW222493   7.420   4.629   7.390 -1.6764  0.6216 -0.4991
 7018SOL     OW22494   0.752   4.104   9.717  0.0317  0.3249  0.1226
 7018SOL    HW122495   0.797   4.187   9.699 -0.8774  0.7572 -0.2343
 7018SOL    HW222496   0.766   4.089   9.811 -1.0305  1.6639  0.5339
 7019SOL     OW22497   2.087   5.400  10.513 -0.3963  0.1486 -0.0111
 7019SOL    HW122498   2.120   5.363  10.595 -0.4935  0.9268  0.3896
 7019SOL    HW222499   2.018   5.460  10.540 -1.0101 -0.2237 -0.7287
 7020SOL     OW22500   3.061   1.819  10.390 -0.6323 -0.2821 -0.0981
 7020SOL    HW122501   2.967   1.831  10.401 -0.4107  0.8509  0.7082
 7020SOL    HW222502   3.093   1.798  10.477 -0.0578 -0.1055 -0.2617
 7021SOL     OW22503   2.061   2.168   3.295  0.0671 -0.2673 -0.4425
 7021SOL    HW122504   2.097   2.080   3.286  2.7889  0.7366 -0.2668
 7021SOL    HW222505   2.082   2.194   3.385 -0.3028  0.7239 -0.6210
 7022SOL     OW22506   5.642   0.474  10.419  0.3052  0.1554  0.6149
 7022SOL    HW122507   5.587   0.446  10.346  2.5576 -1.9053 -0.4743
 7022SOL    HW222508   5.593   0.450  10.497 -1.7701  1.5642 -0.1789
 7023SOL     OW22509   0.435   5.750   3.729 -0.2680  0.1563  0.1646
 7023SOL    HW122510   0.389   5.835   3.728  0.3463  0.5021  0.5132
 7023SOL    HW222511   0.441   5.727   3.822 -1.5415 -0.8986  0.0062
 7024SOL     OW22512   0.166   4.146   6.848 -0.1099  0.2216  0.1217
 7024SOL    HW122513   0.104   4.217   6.863 -0.6354  0.1350 -1.4199
 7024SOL    HW222514   0.118   4.067   6.872 -0.5876  0.1648 -0.9616
 7025SOL     OW22515   2.135   6.336  10.749 -0.2023 -0.2856 -0.3060
 7025SOL    HW122516   2.068   6.373  10.806  1.3387  0.5893  1.0425
 7025SOL    HW222517   2.088   6.276  10.691 -2.0299 -0.1677  0.9843
 7026SOL     OW22518   4.789   2.058  10.019 -0.1783  0.5347  0.0062
 7026SOL    HW122519   4.866   2.006  10.043 -0.0383  1.6480  2.1905
 7026SOL    HW222520   4.756   2.016   9.940  1.2729 -1.4360  0.3662
 7027SOL     OW22521   3.389   4.361  10.756  0.1240  0.1525  0.3186
 7027SOL    HW122522   3.419   4.381  10.844 -0.9405 -0.4423  0.8442
 7027SOL    HW222523   3.375   4.446  10.715 -1.1138  0.4883  1.3676
 7028SOL     OW22524   2.042   5.885   6.322 -0.1068  0.3929  0.1182
 7028SOL    HW122525   1.979   5.820   6.291 -1.1720  1.2209  0.4719
 7028SOL    HW222526   2.116   5.834   6.355  0.3913 -0.5677 -2.2706
 7029SOL     OW22527   7.803   1.275   4.713 -0.5408  0.7744  0.2307
 7029SOL    HW122528   7.867   1.212   4.744 -1.4271 -0.4518 -0.3173
 7029SOL    HW222529   7.724   1.257   4.764 -1.3210  0.2621 -1.0861
 7030SOL     OW22530   3.834   6.372  11.357 -0.3289  0.0892 -0.2703
 7030SOL    HW122531   3.846   6.320  11.278  0.4517  0.2289 -0.2495
 7030SOL    HW222532   3.888   6.329  11.423  0.0091  0.6894 -0.1460
 7031SOL     OW22533   0.118   5.029   4.475  0.8955  0.5149 -0.7773
 7031SOL    HW122534   0.162   5.089   4.535  0.4108 -0.5339  0.7082
 7031SOL    HW222535   0.026   5.055   4.478  0.2600 -1.4876  1.5995
 7032SOL     OW22536   0.307   1.991   5.003 -0.0895  0.7127 -0.3628
 7032SOL    HW122537   0.397   1.976   4.972 -0.3120  0.1475 -0.7486
 7032SOL    HW222538   0.313   2.072   5.053  0.4107  1.3173 -1.3694
 7033SOL     OW22539   4.792   2.467  11.547 -0.3515  0.2811 -0.1371
 7033SOL    HW122540   4.856   2.442  11.480 -1.5679  0.6334 -1.4611
 7033SOL    HW222541   4.794   2.395  11.610  1.0339  0.0918 -0.3631
 7034SOL     OW22542   0.279   2.833   9.592 -0.0981  0.0473 -0.2709
 7034SOL    HW122543   0.201   2.794   9.630 -0.1231 -0.0023 -0.3732
 7034SOL    HW222544   0.264   2.832   9.497  0.6110 -1.2489 -0.3905
 7035SOL     OW22545   3.380   0.124   1.505 -0.0491 -0.2552 -0.1331
 7035SOL    HW122546   3.460   0.073   1.496  0.6072  0.8583 -0.8161
 7035SOL    HW222547   3.403   0.211   1.472 -1.5057  0.1159 -0.2356
 7036SOL     OW22548   6.680   0.408  11.519  0.5641  0.4614  0.2236
 7036SOL    HW122549   6.619   0.339  11.546  0.7000  0.3203  0.1700
 7036SOL    HW222550   6.717   0.376  11.436  2.4985 -0.5879  1.4024
 7037SOL     OW22551   4.618   2.819   6.701  0.7529 -0.1122 -0.3513
 7037SOL    HW122552   4.612   2.749   6.636  0.4760  0.0386 -0.4879
 7037SOL    HW222553   4.711   2.844   6.699  0.4945  0.8610 -1.7123
 7038SOL     OW22554   5.461   0.300  11.227 -0.4212  0.0046 -0.1816
 7038SOL    HW122555   5.499   0.269  11.309 -0.7224 -0.6631 -0.2854
 7038SOL    HW222556   5.528   0.356  11.189  0.8261 -1.7645 -0.7496
 7039SOL     OW22557   2.608   5.037   1.806 -0.4641  0.4137 -0.2717
 7039SOL    HW122558   2.566   4.952   1.806 -0.0353  0.1951 -0.6340
 7039SOL    HW222559   2.683   5.027   1.866  1.9935 -0.7274 -3.2449
 7040SOL     OW22560   0.239   5.705  11.782 -0.2307 -1.0206  0.1464
 7040SOL    HW122561   0.221   5.661  11.699 -1.2844 -2.4848  1.0879
 7040SOL    HW222562   0.248   5.633  11.845  0.0214  0.0666  1.3910
 7041SOL     OW22563   3.865   5.061   7.666 -0.2590 -0.4660  0.5461
 7041SOL    HW122564   3.893   4.988   7.722 -2.2235 -0.3076  1.8519
 7041SOL    HW222565   3.799   5.107   7.719 -0.1964  1.3313 -0.8681
 7042SOL     OW22566   5.150   7.170   1.092  0.1075 -0.3241 -0.1600
 7042SOL    HW122567   5.200   7.183   1.012 -2.1571  3.1921 -1.2531
 7042SOL    HW222568   5.212   7.189   1.163  1.2883 -0.0011 -1.2487
 7043SOL     OW22569   5.184   3.961   4.383 -0.4217 -0.5355  0.9622
 7043SOL    HW122570   5.279   3.963   4.373 -0.5446 -0.5352 -0.2722
 7043SOL    HW222571   5.161   4.051   4.407 -0.4298  0.4052 -2.1338
 7044SOL     OW22572   6.861   1.453   3.971  0.2235 -0.5802  0.3044
 7044SOL    HW122573   6.946   1.498   3.969 -0.1361  0.1043  0.1100
 7044SOL    HW222574   6.883   1.360   3.961  0.7782 -0.1896 -3.6628
 7045SOL     OW22575   6.869   1.619   6.391 -0.6198  0.4652 -0.4522
 7045SOL    HW122576   6.890   1.712   6.394 -1.0164  0.6200 -1.7528
 7045SOL    HW222577   6.821   1.608   6.309  0.4305 -1.1012 -0.9014
 7046SOL     OW22578   4.521   0.645  11.753  0.5635 -0.5214  0.3571
 7046SOL    HW122579   4.562   0.637  11.838  2.2406  1.1923 -0.2182
 7046SOL    HW222580   4.570   0.585  11.696  1.4887  0.5977 -0.0528
 7047SOL     OW22581   2.831   0.083   0.776 -0.0015  0.2201 -0.1980
 7047SOL    HW122582   2.797   0.013   0.720 -1.2794  1.0338 -0.4955
 7047SOL    HW222583   2.906   0.044   0.821  0.2989 -0.8330 -1.5413
 7048SOL     OW22584   1.619   4.035  11.583  0.1408  0.1535 -0.5047
 7048SOL    HW122585   1.703   4.023  11.539  0.5080  1.6616 -0.2736
 7048SOL    HW222586   1.635   4.009  11.673  0.0533 -0.6034 -0.7029
 7049SOL     OW22587   0.956   4.129   3.099 -0.1714  0.1527  0.5367
 7049SOL    HW122588   0.957   4.220   3.130 -0.9294  0.7429 -1.0501
 7049SOL    HW222589   0.882   4.089   3.144 -1.0523  0.8994 -0.2099
 7050SOL     OW22590   6.893   6.958   6.870  0.0373 -0.6082  0.0188
 7050SOL    HW122591   6.867   7.015   6.797 -1.2103  0.4165  1.2177
 7050SOL    HW222592   6.891   6.870   6.833 -0.7123 -0.1364 -1.1461
 7051SOL     OW22593   3.122   0.543   1.625 -0.1869  0.1082  0.0120
 7051SOL    HW122594   3.089   0.545   1.715 -0.9287 -0.6233 -0.2311
 7051SOL    HW222595   3.191   0.477   1.627 -0.2445  0.0488  0.0270
 7052SOL     OW22596   0.222   3.988  11.418  0.6441 -0.0602 -0.0056
 7052SOL    HW122597   0.200   4.004  11.326 -0.1870  0.5711  0.2871
 7052SOL    HW222598   0.316   4.001  11.423  0.5585  0.9070 -0.5865
 7053SOL     OW22599   2.237   5.735   7.134 -0.6680 -0.2229 -0.1740
 7053SOL    HW122600   2.262   5.818   7.173 -1.5554  0.1723 -0.4084
 7053SOL    HW222601   2.295   5.724   7.059 -0.5069  0.1507 -0.1035
 7054SOL     OW22602   1.448   4.547  11.161  0.2791  0.2881  0.3035
 7054SOL    HW122603   1.416   4.578  11.246  3.5791  1.4049  1.3091
 7054SOL    HW222604   1.446   4.451  11.168  1.2783  0.3468  2.0498
 7055SOL     OW22605   6.880   7.949  10.019  0.1416  0.4596 -0.0620
 7055SOL    HW122606   6.800   7.897  10.022 -0.4838  1.2595 -1.5897
 7055SOL    HW222607   6.950   7.884  10.010  0.0062 -0.4132  3.5906
 7056SOL     OW22608   1.959   1.211   4.979  0.4987 -0.2783  0.0046
 7056SOL    HW122609   1.997   1.231   4.894  0.9748 -1.0120  0.0343
 7056SOL    HW222610   1.956   1.115   4.982  0.7877 -0.2703  0.9333
 7057SOL     OW22611   7.021   5.013  10.451 -0.4578  0.0118 -0.7053
 7057SOL    HW122612   6.987   4.973  10.531  1.4271 -0.4955 -0.0886
 7057SOL    HW222613   7.092   5.070  10.481 -0.4266  0.6651 -1.9341
 7058SOL     OW22614   1.728   7.803   8.354  0.1473 -0.2006 -0.0491
 7058SOL    HW122615   1.816   7.828   8.380  0.0290  1.0682 -0.8155
 7058SOL    HW222616   1.738   7.715   8.317  0.6265 -1.2071  2.3287
 7059SOL     OW22617   2.608   4.570   1.428  0.2808 -0.4077 -0.1676
 7059SOL    HW122618   2.578   4.639   1.487 -0.2160 -1.7105  1.1475
 7059SOL    HW222619   2.585   4.488   1.472 -1.2433 -1.4762 -2.6845
 7060SOL     OW22620   5.225   1.324   7.532  0.2220  0.0158 -0.4949
 7060SOL    HW122621   5.277   1.404   7.522  0.0333  0.0304 -1.4919
 7060SOL    HW222622   5.280   1.255   7.496  0.7802 -0.4910  1.2391
 7061SOL     OW22623   2.709   6.121  10.352 -0.3284  0.2223  0.2141
 7061SOL    HW122624   2.633   6.117  10.410  0.4335 -1.7452  1.1564
 7061SOL    HW222625   2.773   6.172  10.401 -0.8794  1.6310 -0.4598
 7062SOL     OW22626   7.846   0.121   9.431  0.1761  0.5639 -0.2803
 7062SOL    HW122627   7.903   0.182   9.477 -0.0450  1.5750 -1.3054
 7062SOL    HW222628   7.887   0.108   9.346 -0.2606 -0.0124 -0.4141
 7063SOL     OW22629   6.395   6.118   3.319 -0.2773 -0.6062  0.4686
 7063SOL    HW122630   6.443   6.184   3.370 -2.0201 -0.6989  2.3843
 7063SOL    HW222631   6.334   6.168   3.266 -0.2852 -0.6095  0.4744
 7064SOL     OW22632   5.105   0.462   7.179 -0.1083 -0.5509  0.1010
 7064SOL    HW122633   5.134   0.446   7.269 -0.9190 -0.2184  0.4365
 7064SOL    HW222634   5.010   0.475   7.187 -0.0485  0.4661 -0.6704
 7065SOL     OW22635   7.918   2.934   3.319 -0.0253 -0.6464 -0.4298
 7065SOL    HW122636   7.922   2.858   3.377  0.8151 -0.3716 -0.1198
 7065SOL    HW222637   7.984   2.994   3.353 -0.9558  0.4063 -0.4377
 7066SOL     OW22638   6.920   3.028   3.125 -0.1911  0.4296  0.3503
 7066SOL    HW122639   7.003   2.981   3.116  0.8773  2.4200 -1.2472
 7066SOL    HW222640   6.889   3.037   3.035 -1.0462  1.5531  0.7442
 7067SOL     OW22641   0.504   6.276   5.431 -0.5426  0.2173  0.3719
 7067SOL    HW122642   0.569   6.264   5.362  0.4467 -2.5229  1.6702
 7067SOL    HW222643   0.420   6.261   5.387 -0.0636  0.2451 -0.5839
 7068SOL     OW22644   6.348   2.210   5.350 -0.6022 -0.3863  0.0688
 7068SOL    HW122645   6.317   2.284   5.298  1.0523 -0.5112 -1.1494
 7068SOL    HW222646   6.312   2.226   5.437 -0.2470  1.8831 -0.1509
 7069SOL     OW22647   1.991   0.994   8.175  0.3332  0.1187  0.4139
 7069SOL    HW122648   1.954   1.078   8.147 -0.2358 -0.2779 -0.0548
 7069SOL    HW222649   2.078   0.992   8.136 -0.1678 -0.1038 -0.7320
 7070SOL     OW22650   6.842   0.074  11.497 -0.1903 -0.2976 -0.4889
 7070SOL    HW122651   6.774   0.012  11.522 -0.7135  0.0551 -1.0123
 7070SOL    HW222652   6.875   0.108  11.580 -0.7110 -0.4085 -0.2312
 7071SOL     OW22653   4.848   0.015   4.661 -0.2200  0.0770  0.0503
 7071SOL    HW122654   4.890   0.053   4.585  1.0832  1.5056  1.4151
 7071SOL    HW222655   4.806   0.089   4.705  0.2274 -0.4573  1.4364
 7072SOL     OW22656   7.503   0.523  12.346  0.8156 -0.0068 -0.6553
 7072SOL    HW122657   7.416   0.482  12.346  0.0689  1.4455  0.3615
 7072SOL    HW222658   7.553   0.474  12.410  0.9582 -1.2072 -1.6440
 7073SOL     OW22659   3.589   1.130   4.580 -0.1735  0.1512  0.5661
 7073SOL    HW122660   3.671   1.174   4.599 -0.2240 -0.4960  2.6133
 7073SOL    HW222661   3.610   1.036   4.585 -0.6806 -0.0533 -0.7046
 7074SOL     OW22662   4.712   5.727  11.715  0.7018 -0.5368 -0.1706
 7074SOL    HW122663   4.638   5.697  11.662 -0.6460  1.3126  0.5591
 7074SOL    HW222664   4.734   5.813  11.680  0.7874  0.0512  1.2527
 7075SOL     OW22665   3.870   2.909  11.271 -0.4420 -0.1987 -0.0170
 7075SOL    HW122666   3.906   2.946  11.191  1.6655  0.1848  1.0287
 7075SOL    HW222667   3.821   2.832  11.243  1.5215 -0.9614 -1.5711
 7076SOL     OW22668   4.980   3.254  12.440  0.0499 -0.0621 -0.7590
 7076SOL    HW122669   4.977   3.164  12.407 -1.8448 -1.1110  1.9142
 7076SOL    HW222670   4.894   3.290  12.419  0.4627  0.8292 -0.9696
 7077SOL     OW22671   7.181   0.531   5.130 -0.0294 -0.0287 -0.0983
 7077SOL    HW122672   7.240   0.456   5.120 -0.3347 -0.2013 -0.6379
 7077SOL    HW222673   7.158   0.555   5.040 -0.8316 -0.0037  0.1080
 7078SOL     OW22674   6.953   5.784   8.655 -0.0076 -0.4591 -0.1059
 7078SOL    HW122675   6.966   5.698   8.613 -1.7806 -0.9239  0.2223
 7078SOL    HW222676   6.895   5.766   8.729 -0.3750  1.0083 -0.0105
 7079SOL     OW22677   0.912   3.259   4.309  0.5228  0.0200 -0.4634
 7079SOL    HW122678   0.948   3.171   4.306  0.9528  0.2296 -1.8268
 7079SOL    HW222679   0.878   3.275   4.221 -0.7541  0.7277  0.1235
 7080SOL     OW22680   1.539   5.394  11.145 -0.3725  0.7124 -0.4432
 7080SOL    HW122681   1.552   5.300  11.132 -2.7328  0.1247  0.8269
 7080SOL    HW222682   1.447   5.409  11.123 -0.1738  2.6365 -0.1555
 7081SOL     OW22683   4.557   0.800   9.854 -0.6529 -0.8537  0.3507
 7081SOL    HW122684   4.530   0.717   9.816 -2.1105 -0.4088  0.3783
 7081SOL    HW222685   4.497   0.814   9.927 -0.4370  0.2302  0.3349
 7082SOL     OW22686   4.219   3.716   6.177  0.0996  0.2087  0.2800
 7082SOL    HW122687   4.172   3.647   6.130 -0.7646  0.0748  1.2874
 7082SOL    HW222688   4.242   3.676   6.261 -0.0159  0.9957  0.7003
 7083SOL     OW22689   2.611   7.262  11.384 -0.0638 -0.1944 -0.2191
 7083SOL    HW122690   2.616   7.350  11.421 -0.5739  0.1242 -0.8969
 7083SOL    HW222691   2.556   7.213  11.446  0.5587 -0.1522  0.3723
 7084SOL     OW22692   4.526   6.684   7.245  0.5618 -0.0519  0.2713
 7084SOL    HW122693   4.451   6.743   7.248 -0.3179 -1.0507 -0.7991
 7084SOL    HW222694   4.600   6.740   7.222 -0.5568  0.4446 -2.5707
 7085SOL     OW22695   6.585   1.196   3.177 -0.0594  0.4437 -0.8326
 7085SOL    HW122696   6.656   1.246   3.219 -0.7290 -1.0873  2.4474
 7085SOL    HW222697   6.626   1.114   3.152 -0.0610  0.6869 -1.6604
 7086SOL     OW22698   2.743   2.653   3.710 -0.1790  0.0622  0.2936
 7086SOL    HW122699   2.823   2.607   3.733 -1.2762 -1.7656  0.6498
 7086SOL    HW222700   2.752   2.673   3.616  1.1527  0.9510  0.5838
 7087SOL     OW22701   2.949   4.996   3.145 -0.4334 -0.0990  0.1246
 7087SOL    HW122702   2.901   5.079   3.142 -0.3686 -0.0590  0.1840
 7087SOL    HW222703   2.882   4.929   3.155 -0.4735 -0.0378  0.2754
 7088SOL     OW22704   6.977   3.644   3.458 -0.5820  0.0054 -0.0345
 7088SOL    HW122705   6.953   3.651   3.366  0.5293  1.8568 -0.2319
 7088SOL    HW222706   7.066   3.679   3.463 -0.5654 -0.1606  1.7286
 7089SOL     OW22707   0.300   7.621  11.829  0.0154  0.4445  0.8131
 7089SOL    HW122708   0.306   7.552  11.895 -1.9085  1.9717  2.7485
 7089SOL    HW222709   0.211   7.614  11.795 -0.1780  1.8365  0.9578
 7090SOL     OW22710   6.581   6.347   1.645  0.5806 -1.0904 -0.0103
 7090SOL    HW122711   6.546   6.284   1.708 -1.4990  0.8010  0.8818
 7090SOL    HW222712   6.523   6.423   1.653  2.7233  0.8038 -1.2741
 7091SOL     OW22713   5.112   3.156   6.574  0.4111  0.3355 -0.2585
 7091SOL    HW122714   5.069   3.242   6.579  0.3595  0.4157 -1.6947
 7091SOL    HW222715   5.205   3.177   6.571  0.4214  0.3110 -0.1222
 7092SOL     OW22716   5.152   1.156  12.212 -0.8905  0.1187  0.3812
 7092SOL    HW122717   5.069   1.159  12.165 -0.6556  1.1411 -0.0116
 7092SOL    HW222718   5.218   1.159  12.143 -0.5247 -0.5813  0.6961
 7093SOL     OW22719   3.286   6.201   9.390  0.1047 -0.0149 -0.4887
 7093SOL    HW122720   3.322   6.280   9.431 -2.4222  1.2784 -0.5777
 7093SOL    HW222721   3.299   6.214   9.297 -0.2649  0.2637 -0.5002
 7094SOL     OW22722   6.309   3.458   6.441 -0.2089  0.3957 -0.0530
 7094SOL    HW122723   6.390   3.469   6.391 -0.4270  3.4636  0.1200
 7094SOL    HW222724   6.338   3.432   6.528  0.6533  1.6764  0.0749
 7095SOL     OW22725   6.231   3.742   0.604 -0.0351 -0.8557 -0.2541
 7095SOL    HW122726   6.156   3.789   0.568  0.5484 -0.6840 -1.2890
 7095SOL    HW222727   6.301   3.808   0.608  0.8530 -1.6334 -1.9187
 7096SOL     OW22728   5.725   1.132   9.953  0.5027 -0.3049 -0.6015
 7096SOL    HW122729   5.693   1.135  10.043  1.8993 -0.0950 -0.0886
 7096SOL    HW222730   5.647   1.151   9.900 -0.2995 -0.2076  0.5558
 7097SOL     OW22731   1.840   1.836   4.141 -0.2710  0.2943  0.3731
 7097SOL    HW122732   1.746   1.841   4.160 -0.3498  1.8114 -0.2710
 7097SOL    HW222733   1.863   1.923   4.110  0.2871 -1.1801 -4.3028
 7098SOL     OW22734   4.522   1.435   4.464 -0.0201 -0.3229  0.2437
 7098SOL    HW122735   4.432   1.418   4.492 -0.6320 -0.0065 -1.4474
 7098SOL    HW222736   4.535   1.528   4.483 -0.5152 -0.0511 -0.6876
 7099SOL     OW22737   4.864   4.897   5.507 -0.0787 -0.5437  0.1113
 7099SOL    HW122738   4.862   4.817   5.454 -2.2800 -0.0828 -0.5943
 7099SOL    HW222739   4.784   4.893   5.559  0.2236  0.7971  0.7194
 7100SOL     OW22740   3.444   1.988   6.290  0.2604 -0.3201  0.5923
 7100SOL    HW122741   3.380   2.030   6.347 -0.3405 -1.0978  0.5098
 7100SOL    HW222742   3.522   1.978   6.345  0.5048  1.0994  0.5376
 7101SOL     OW22743   0.184   4.757   0.894 -0.0671  0.0461 -0.1274
 7101SOL    HW122744   0.169   4.668   0.862  0.8680  0.0961 -0.7226
 7101SOL    HW222745   0.134   4.812   0.834  0.4380  0.0185 -0.5832
 7102SOL     OW22746   1.143   5.004   6.440  0.3956 -0.1417 -0.3236
 7102SOL    HW122747   1.236   4.998   6.465  0.2088  0.5220  0.5904
 7102SOL    HW222748   1.096   4.970   6.516 -0.0765 -3.0320 -1.7647
 7103SOL     OW22749   5.561   4.473   2.009 -0.4686 -0.0932 -0.2266
 7103SOL    HW122750   5.555   4.549   1.951  0.8192 -0.0382 -0.3220
 7103SOL    HW222751   5.655   4.457   2.018 -0.7090 -1.6483 -0.1664
 7104SOL     OW22752   6.403   2.628   7.996 -0.2842 -0.2371  0.2074
 7104SOL    HW122753   6.459   2.572   8.050 -1.7424 -1.3816  0.5905
 7104SOL    HW222754   6.433   2.717   8.016  0.4682 -0.7439  1.4636
 7105SOL     OW22755   6.199   5.462   3.376  0.4846  0.7517  0.1168
 7105SOL    HW122756   6.252   5.536   3.347 -0.6097  2.4266  2.0779
 7105SOL    HW222757   6.113   5.500   3.394 -0.1140 -0.9981  1.1827
 7106SOL     OW22758   7.506   0.443   4.734  0.0818  0.1800  0.2007
 7106SOL    HW122759   7.471   0.532   4.732 -0.2647  0.0342 -0.7330
 7106SOL    HW222760   7.591   0.452   4.777  0.5829  1.1721 -0.9475
 7107SOL     OW22761   5.129   6.612   0.147 -0.1731  0.0019  0.2597
 7107SOL    HW122762   5.086   6.649   0.070 -0.5498  0.8898  0.8774
 7107SOL    HW222763   5.060   6.562   0.191  0.0578 -0.5571 -0.0010
 7108SOL     OW22764   6.610   2.100   0.874 -0.3016  0.0370 -0.6088
 7108SOL    HW122765   6.665   2.144   0.809  0.1438  2.9609  1.5190
 7108SOL    HW222766   6.523   2.140   0.863  0.3532  2.5597  2.0429
 7109SOL     OW22767   2.989   6.020   9.575  0.1788 -0.0070  0.3611
 7109SOL    HW122768   3.039   6.011   9.656  2.5955 -0.3638 -1.1019
 7109SOL    HW222769   2.979   5.930   9.543  0.2435  0.2234 -0.3136
 7110SOL     OW22770   2.003   0.972   4.812  0.6084  0.3019  0.4102
 7110SOL    HW122771   2.081   0.973   4.757  1.3297  0.3670  1.4000
 7110SOL    HW222772   1.930   0.961   4.751  1.4098 -0.0306 -0.5115
 7111SOL     OW22773   0.091   4.972   8.924 -0.4417 -0.6284  0.1561
 7111SOL    HW122774   0.047   4.968   9.009 -2.3944 -1.0074 -0.8213
 7111SOL    HW222775   0.166   5.030   8.939 -2.3544  1.6870  1.4479
 7112SOL     OW22776   2.371   7.233  11.564 -0.1981 -0.7236 -0.0613
 7112SOL    HW122777   2.304   7.302  11.559  1.2310  0.8344  1.1684
 7112SOL    HW222778   2.336   7.163  11.509 -1.5250  1.1352 -1.7618
 7113SOL     OW22779   1.734   7.437   4.270  0.1936  0.5958  0.3691
 7113SOL    HW122780   1.801   7.384   4.313 -0.9043 -0.7119  0.5438
 7113SOL    HW222781   1.731   7.519   4.319  1.7713  0.7573  0.2369
 7114SOL     OW22782   3.165   7.735   4.573  0.3974 -0.2257  0.3783
 7114SOL    HW122783   3.195   7.826   4.566 -0.2161 -0.0546 -0.2502
 7114SOL    HW222784   3.127   7.729   4.660 -1.1099  0.6306 -0.1823
 7115SOL     OW22785   1.701   7.602  10.775 -0.7204 -0.3871  0.1737
 7115SOL    HW122786   1.792   7.573  10.771 -1.3649 -2.4202 -1.6677
 7115SOL    HW222787   1.703   7.691  10.739  0.4998 -0.5551 -0.2123
 7116SOL     OW22788   6.373   0.087  10.945  0.0167  0.2194  0.3518
 7116SOL    HW122789   6.359   0.159  10.883  3.1464  0.6426 -0.0234
 7116SOL    HW222790   6.375   0.130  11.030 -1.4505  0.0386  0.5037
 7117SOL     OW22791   4.804   2.755   5.225  0.5354 -0.1349  0.2070
 7117SOL    HW122792   4.733   2.698   5.256  0.2978 -1.4165 -2.4420
 7117SOL    HW222793   4.760   2.826   5.179  0.9448 -0.3935 -0.5894
 7118SOL     OW22794   2.755   1.996   6.912  0.0277  0.9363 -0.1081
 7118SOL    HW122795   2.730   2.083   6.941 -0.8355  0.6972 -0.1291
 7118SOL    HW222796   2.780   2.008   6.820  0.8128  1.3202  0.1440
 7119SOL     OW22797   6.801   3.758   0.220  0.5451  0.4877  0.6615
 7119SOL    HW122798   6.740   3.743   0.148  0.7752 -0.2608  0.6063
 7119SOL    HW222799   6.747   3.756   0.298  0.4472  0.1500  0.5885
 7120SOL     OW22800   0.815   3.301   1.943 -0.1545  0.3024  0.0518
 7120SOL    HW122801   0.837   3.253   1.863 -1.7572 -0.4963  0.0611
 7120SOL    HW222802   0.876   3.266   2.009  1.3941  1.1873 -0.8348
 7121SOL     OW22803   1.139   4.712   5.549  0.1810  0.4298 -0.4962
 7121SOL    HW122804   1.160   4.665   5.630  0.8628  0.6406 -0.5371
 7121SOL    HW222805   1.084   4.785   5.577 -0.0918  0.1546 -0.3061
 7122SOL     OW22806   3.887   5.249  10.185  0.4753  0.2213  0.2458
 7122SOL    HW122807   3.829   5.316  10.148 -1.4695 -1.2231  0.5451
 7122SOL    HW222808   3.916   5.199  10.109  0.9962  0.6600  0.1455
 7123SOL     OW22809   2.070   2.139   8.683 -0.2948  0.3378 -0.2230
 7123SOL    HW122810   2.045   2.085   8.608  1.5514  1.1784 -1.5352
 7123SOL    HW222811   2.131   2.085   8.733 -0.4115  0.2911 -0.1318
 7124SOL     OW22812   3.927   1.830   7.713  0.4398  0.3705 -0.1375
 7124SOL    HW122813   3.887   1.886   7.779 -0.3306 -0.6286  0.2607
 7124SOL    HW222814   3.891   1.743   7.729  0.3097  0.0748 -1.7964
 7125SOL     OW22815   4.659   4.460   4.281  0.2361 -0.2595  0.5499
 7125SOL    HW122816   4.637   4.542   4.236  0.5637  1.1747  2.8712
 7125SOL    HW222817   4.752   4.467   4.299  0.5227 -1.7115 -0.2491
 7126SOL     OW22818   1.034   0.446   3.867 -0.1766  0.0885 -0.1116
 7126SOL    HW122819   1.013   0.382   3.936 -0.8508  0.4382  0.0156
 7126SOL    HW222820   0.966   0.432   3.801 -1.4337  1.8801  0.7351
 7127SOL     OW22821   1.419   7.960   2.971  0.9023  0.1513 -0.6886
 7127SOL    HW122822   1.340   7.915   2.940  0.1435  0.7093  0.3925
 7127SOL    HW222823   1.479   7.956   2.896 -0.4271  0.3949 -1.8154
 7128SOL     OW22824   4.703   2.173   2.211  0.3562  0.0886 -0.1564
 7128SOL    HW122825   4.709   2.217   2.126  0.4218 -1.9030 -1.2496
 7128SOL    HW222826   4.610   2.172   2.231 -0.0762 -2.2404 -1.8589
 7129SOL     OW22827   3.755   6.912   8.531  0.4668  0.1663 -0.0936
 7129SOL    HW122828   3.785   6.857   8.604  0.5108 -0.2418 -0.4144
 7129SOL    HW222829   3.739   6.998   8.571 -1.5316 -0.5738  0.8294
 7130SOL     OW22830   5.314   1.102   7.368 -0.2922  0.4738  0.3687
 7130SOL    HW122831   5.222   1.078   7.378 -0.7602  1.4236 -1.2412
 7130SOL    HW222832   5.361   1.019   7.374 -1.4544 -0.3009 -0.7120
 7131SOL     OW22833   5.815   2.260  11.147  0.1980  0.4049  0.1221
 7131SOL    HW122834   5.859   2.179  11.122  0.3724  0.4830  0.1780
 7131SOL    HW222835   5.876   2.329  11.124  0.8662  0.4150  1.8221
 7132SOL     OW22836   1.397   1.665  11.489 -0.1504 -0.6370 -0.4779
 7132SOL    HW122837   1.447   1.699  11.414 -1.7086  0.0193 -1.2684
 7132SOL    HW222838   1.407   1.570  11.483  0.1126 -0.5677 -1.2616
 7133SOL     OW22839   4.926   4.744   6.162  0.2384  0.3471 -0.8666
 7133SOL    HW122840   4.899   4.807   6.095  1.5520  0.3230 -1.4516
 7133SOL    HW222841   4.967   4.673   6.113  0.4587 -0.0764 -0.0901
 7134SOL     OW22842   5.792   5.619  12.393 -0.4716  0.1526  0.2930
 7134SOL    HW122843   5.850   5.578  12.457  1.4236 -0.8939 -1.9502
 7134SOL    HW222844   5.729   5.550  12.370  0.3247 -0.2755 -0.6616
 7135SOL     OW22845   1.570   5.081  11.477  0.4072 -0.6469 -0.3957
 7135SOL    HW122846   1.488   5.128  11.460  0.3753 -1.1729 -1.8161
 7135SOL    HW222847   1.611   5.129  11.549 -1.2524 -0.5215  0.5078
 7136SOL     OW22848   0.784   3.798   9.764 -0.2310  0.5369 -0.5235
 7136SOL    HW122849   0.696   3.764   9.746 -0.2130  0.1261  0.1231
 7136SOL    HW222850   0.768   3.885   9.803 -0.4911 -0.4099  1.6669
 7137SOL     OW22851   7.135   0.593   4.258 -0.5251  0.2183 -0.9510
 7137SOL    HW122852   7.044   0.621   4.252 -0.4324  0.9245  0.4797
 7137SOL    HW222853   7.156   0.560   4.171 -2.4055 -0.7760 -1.0728
 7138SOL     OW22854   6.800   4.156   0.412  0.2361 -0.0356 -0.2462
 7138SOL    HW122855   6.772   4.244   0.435 -0.3521 -0.5090  0.9656
 7138SOL    HW222856   6.720   4.113   0.381  0.6114 -0.0128 -1.2546
 7139SOL     OW22857   7.510   1.452   7.183 -0.8850 -0.0551  0.1006
 7139SOL    HW122858   7.520   1.497   7.099  0.7581  1.2491  0.9248
 7139SOL    HW222859   7.508   1.522   7.248 -0.7352 -1.0885  1.2685
 7140SOL     OW22860   0.636   4.908   2.815 -0.1314  0.6155  0.0273
 7140SOL    HW122861   0.667   4.931   2.727 -0.9331  0.6033 -0.2622
 7140SOL    HW222862   0.716   4.888   2.863  0.3227  0.6456 -0.6912
 7141SOL     OW22863   3.995   4.750   6.606  1.3261 -0.8245 -0.3991
 7141SOL    HW122864   3.993   4.682   6.538  0.6891 -1.0496 -0.1652
 7141SOL    HW222865   4.040   4.708   6.679  2.0546 -0.5657 -0.6924
 7142SOL     OW22866   6.524   4.338   4.434 -0.0161  0.1493 -0.0096
 7142SOL    HW122867   6.521   4.427   4.400  2.2488  0.4946  0.5689
 7142SOL    HW222868   6.517   4.347   4.529  0.1637 -0.2890  0.0495
 7143SOL     OW22869   7.767   0.336   3.917 -0.4616 -0.4055  0.1495
 7143SOL    HW122870   7.768   0.243   3.896 -0.7727 -0.3289 -0.2369
 7143SOL    HW222871   7.857   0.358   3.940 -0.2630 -0.6700 -0.3683
 7144SOL     OW22872   6.702   1.105   0.556 -0.4370 -0.1068 -0.1775
 7144SOL    HW122873   6.763   1.154   0.613  2.9788 -2.3882 -1.5661
 7144SOL    HW222874   6.677   1.029   0.608 -1.1560  0.1983 -0.0661
 7145SOL     OW22875   7.105   0.765  11.593  0.2606  0.0865 -0.0006
 7145SOL    HW122876   7.160   0.816  11.534  0.2001  0.0271 -0.1103
 7145SOL    HW222877   7.016   0.778  11.560  0.0759  1.0935  0.8557
 7146SOL     OW22878   5.607   2.456   3.829 -0.4446  0.2397 -0.0159
 7146SOL    HW122879   5.555   2.506   3.891 -2.8731 -1.5633 -0.4258
 7146SOL    HW222880   5.545   2.432   3.760  1.0832 -1.5235 -0.8592
 7147SOL     OW22881   2.961   5.518   9.339  0.2406  0.0685  0.3556
 7147SOL    HW122882   2.946   5.423   9.338 -2.5035  0.4442 -0.3230
 7147SOL    HW222883   2.900   5.553   9.275  2.6037  2.1822 -0.9451
 7148SOL     OW22884   7.907   0.419   4.563  0.0905  0.0433  0.2348
 7148SOL    HW122885   7.922   0.513   4.550 -1.6174  0.6136  1.8799
 7148SOL    HW222886   7.943   0.402   4.650  1.3843 -1.1244 -0.4913
 7149SOL     OW22887   5.472   4.263   4.819  0.0989  0.1316 -0.1619
 7149SOL    HW122888   5.434   4.176   4.806  1.6112 -0.5120 -0.5973
 7149SOL    HW222889   5.525   4.277   4.741  2.6500 -0.0979  1.4177
 7150SOL     OW22890   4.920   0.434   6.815 -0.2183 -0.3984 -0.4864
 7150SOL    HW122891   4.827   0.415   6.802 -0.6074 -0.5536  2.1019
 7150SOL    HW222892   4.924   0.479   6.899  2.0498 -0.1716 -0.6576
 7151SOL     OW22893   5.431   2.754   9.705  0.0448 -0.2631 -0.3840
 7151SOL    HW122894   5.464   2.844   9.697  0.7269 -0.3269  1.3112
 7151SOL    HW222895   5.490   2.713   9.768  0.7462 -2.4102 -2.3076
 7152SOL     OW22896   0.053   2.386   9.655  0.4728  0.6450  0.2232
 7152SOL    HW122897   0.035   2.478   9.674  2.3499  1.4454 -1.4783
 7152SOL    HW222898   0.148   2.382   9.645  0.4050 -1.4473 -0.0325
 7153SOL     OW22899   2.544   6.091   3.847  0.2852 -0.1554 -0.0960
 7153SOL    HW122900   2.621   6.046   3.815  0.6200  0.0416  0.4108
 7153SOL    HW222901   2.519   6.043   3.926  1.0451  0.9060  0.8363
 7154SOL     OW22902   3.289   6.916   6.998 -0.0532 -0.3722 -0.3291
 7154SOL    HW122903   3.321   6.998   7.035  2.7141 -1.1496 -0.7693
 7154SOL    HW222904   3.314   6.921   6.906  2.0615 -2.4791  0.0415
 7155SOL     OW22905   7.063   1.632  10.124 -0.1317  0.0117 -0.1813
 7155SOL    HW122906   7.040   1.582  10.202 -1.9807  0.0756 -0.6325
 7155SOL    HW222907   6.979   1.669  10.094  0.7463  1.0601 -1.4470
 7156SOL     OW22908   0.044   5.818  10.464  0.2806  0.1669  0.8927
 7156SOL    HW122909   0.107   5.763  10.418 -0.7967  0.0292 -0.5065
 7156SOL    HW222910   0.095   5.863  10.531  2.1364  0.9689 -0.9360
 7157SOL     OW22911   1.521   7.859   5.048  0.2634  0.1564  0.3172
 7157SOL    HW122912   1.516   7.773   5.090 -1.0231 -0.4989 -1.0757
 7157SOL    HW222913   1.467   7.916   5.103 -0.7231 -0.4962  0.0683
 7158SOL     OW22914   2.573   7.534   2.436 -0.5065 -0.2099 -0.3539
 7158SOL    HW122915   2.659   7.507   2.404  0.5328  2.9790 -0.7088
 7158SOL    HW222916   2.515   7.528   2.360 -0.3677 -1.3845 -0.3792
 7159SOL     OW22917   4.165   4.641   8.666 -0.6187  0.2550 -0.1891
 7159SOL    HW122918   4.083   4.623   8.620 -1.0635  1.2050  0.2091
 7159SOL    HW222919   4.192   4.555   8.700 -1.5917 -0.0334 -0.0988
 7160SOL     OW22920   7.713   1.662   0.473  0.1322  0.6000  0.1513
 7160SOL    HW122921   7.638   1.603   0.479  0.0317  0.6790 -0.3439
 7160SOL    HW222922   7.734   1.682   0.564 -0.4647  0.6002  0.2913
 7161SOL     OW22923   6.994   2.562  10.247 -0.5298  0.0287 -0.0350
 7161SOL    HW122924   7.080   2.533  10.219 -0.5719 -1.2882  1.0696
 7161SOL    HW222925   7.012   2.622  10.320 -0.5281  0.2371 -0.2078
 7162SOL     OW22926   2.060   7.284  12.375 -0.1575  0.1063  0.2976
 7162SOL    HW122927   2.122   7.354  12.393 -0.3110  0.5678 -0.9177
 7162SOL    HW222928   2.043   7.289  12.281  0.4123 -2.0420  0.0201
 7163SOL     OW22929   2.137   0.852   6.863  0.1970  0.0606  0.9865
 7163SOL    HW122930   2.209   0.886   6.811  0.9446 -1.7257  0.7721
 7163SOL    HW222931   2.173   0.776   6.908 -2.0732 -2.4005 -0.9754
 7164SOL     OW22932   3.103   0.608   1.903 -0.2667 -0.2246  0.3682
 7164SOL    HW122933   3.152   0.553   1.964  1.9352 -0.6878 -1.6269
 7164SOL    HW222934   3.160   0.684   1.889 -1.0494  0.2199 -0.5239
 7165SOL     OW22935   3.702   2.451   1.474  0.5738 -0.4135 -0.2950
 7165SOL    HW122936   3.796   2.437   1.480  0.6894  0.4980  0.1387
 7165SOL    HW222937   3.686   2.475   1.383  0.5936 -1.6898 -0.6520
 7166SOL     OW22938   7.117   4.745  10.353  0.4060  0.5933 -0.0837
 7166SOL    HW122939   7.099   4.824  10.403 -0.6080 -0.0839  0.6606
 7166SOL    HW222940   7.031   4.718  10.319  0.8094  0.0698 -0.7141
 7167SOL     OW22941   5.381   7.043   5.741  0.3703  0.6473 -0.0355
 7167SOL    HW122942   5.353   7.132   5.717  0.7532  0.4545 -1.2404
 7167SOL    HW222943   5.316   6.986   5.702 -0.6730  0.4094  1.9082
 7168SOL     OW22944   2.609   1.548   3.964  0.6081 -0.2808  0.5907
 7168SOL    HW122945   2.672   1.528   4.034 -0.0909 -1.2231  0.9661
 7168SOL    HW222946   2.558   1.621   3.998  2.0110  1.0656 -0.0586
 7169SOL     OW22947   4.390   2.524   4.048 -0.4770 -0.1721  0.1815
 7169SOL    HW122948   4.352   2.439   4.030  0.0583 -0.2113 -0.8196
 7169SOL    HW222949   4.482   2.505   4.067 -0.5151  0.1137  0.6649
 7170SOL     OW22950   1.202   6.689   6.054  0.3443 -0.0540  0.3662
 7170SOL    HW122951   1.194   6.698   6.150 -0.8043  0.1706  0.2703
 7170SOL    HW222952   1.235   6.774   6.025 -0.0461  0.1495  0.5012
 7171SOL     OW22953   7.864   6.413  11.345  0.6263  0.1539 -0.3388
 7171SOL    HW122954   7.774   6.435  11.320  0.5955  2.1383  1.2944
 7171SOL    HW222955   7.855   6.334  11.399  0.2566 -1.4547 -2.5838
 7172SOL     OW22956   2.794   4.534   9.000 -0.2167 -0.1409 -0.1016
 7172SOL    HW122957   2.791   4.443   8.971  0.1863 -0.2123  0.0620
 7172SOL    HW222958   2.869   4.536   9.060  0.4575  0.5437 -0.9543
 7173SOL     OW22959   5.781   0.372  10.952 -0.1827  0.6651 -0.1896
 7173SOL    HW122960   5.795   0.277  10.950  0.1344  0.6852  0.6385
 7173SOL    HW222961   5.811   0.402  10.866  0.3200  0.0968 -0.2221
 7174SOL     OW22962   4.243   5.708  11.479  0.7010  0.0434  0.5796
 7174SOL    HW122963   4.221   5.616  11.484 -2.1682  0.7247  2.6989
 7174SOL    HW222964   4.178   5.746  11.420  0.7433  0.9854  1.1107
 7175SOL     OW22965   7.562   6.082   9.037  0.0902  0.1893 -0.0898
 7175SOL    HW122966   7.606   6.150   8.986 -1.1187  0.1921 -1.1852
 7175SOL    HW222967   7.600   6.088   9.124 -0.2818  2.5452 -0.0443
 7176SOL     OW22968   0.895   1.043   5.568  0.0252  0.1867  0.3630
 7176SOL    HW122969   0.906   1.098   5.490  2.6568  0.9039  1.1289
 7176SOL    HW222970   0.853   0.963   5.536  0.1879  0.8473 -1.6114
 7177SOL     OW22971   4.074   3.718   2.116 -0.0080  0.2045 -0.4113
 7177SOL    HW122972   4.134   3.655   2.074  0.6388  1.6292 -1.7033
 7177SOL    HW222973   4.067   3.686   2.206  4.2950  0.9790  0.4406
 7178SOL     OW22974   3.505   3.935   1.860 -0.0441  0.0167  0.0186
 7178SOL    HW122975   3.564   3.889   1.799 -0.9052 -0.9096 -0.1519
 7178SOL    HW222976   3.563   3.992   1.911  0.6972  0.9325 -1.7557
 7179SOL     OW22977   1.787   2.251   8.282  0.3278  0.6351 -0.3971
 7179SOL    HW122978   1.859   2.266   8.343 -0.3613  1.1361  0.3110
 7179SOL    HW222979   1.826   2.265   8.195  0.8438  1.9116  0.0240
 7180SOL     OW22980   3.074   6.689  11.119 -0.2584  0.0986 -0.4641
 7180SOL    HW122981   3.020   6.667  11.195 -0.5776  0.3531 -0.6179
 7180SOL    HW222982   3.026   6.655  11.044 -0.6651  1.1405 -0.6915
 7181SOL     OW22983   5.487   2.255   4.886 -0.2498 -0.1063 -0.2553
 7181SOL    HW122984   5.423   2.184   4.877 -1.1227  0.4378  1.2007
 7181SOL    HW222985   5.438   2.334   4.863 -0.5218  0.4623  2.0376
 7182SOL     OW22986   5.119   3.588   2.846  0.2620 -0.1385 -0.1330
 7182SOL    HW122987   5.194   3.638   2.877 -1.3955  2.5333 -0.0693
 7182SOL    HW222988   5.156   3.508   2.809  3.0573  0.8745  0.2666
 7183SOL     OW22989   6.473   3.976   1.062  0.3985  0.7504 -0.0408
 7183SOL    HW122990   6.540   4.014   1.119  0.9512 -0.1204 -0.1002
 7183SOL    HW222991   6.405   3.947   1.122  0.1979  1.3787  0.0423
 7184SOL     OW22992   5.661   2.631   9.256 -0.2087  0.2725  0.1161
 7184SOL    HW122993   5.665   2.727   9.250  0.4295  0.2543  0.2234
 7184SOL    HW222994   5.568   2.611   9.248 -0.3325  0.8931 -0.0727
 7185SOL     OW22995   6.040   4.872  10.292  0.1101  0.5094  0.1551
 7185SOL    HW122996   6.084   4.919  10.221  0.8161  0.7288  0.7203
 7185SOL    HW222997   5.959   4.840  10.254  0.4753  0.6348 -0.7455
 7186SOL     OW22998   4.443   6.162  10.330 -0.0164  0.7527  0.3687
 7186SOL    HW122999   4.474   6.244  10.369  2.3320  0.5214 -0.8291
 7186SOL    HW223000   4.368   6.188  10.276  1.3264  2.3289 -0.8200
 7187SOL     OW23001   2.139   7.656   0.451 -0.0963  0.3828  0.2307
 7187SOL    HW123002   2.182   7.739   0.474  0.4642 -0.1001  0.9908
 7187SOL    HW223003   2.210   7.592   0.452 -0.6542 -0.2399  0.4438
 7188SOL     OW23004   3.680   6.405   4.726  0.0291  0.6637 -0.1775
 7188SOL    HW123005   3.618   6.337   4.702  0.4181  0.4686 -0.6456
 7188SOL    HW223006   3.753   6.394   4.665  0.9066  0.3516  0.9020
 7189SOL     OW23007   6.771   3.167   6.404  0.2752  0.3806 -0.0685
 7189SOL    HW123008   6.865   3.161   6.390  0.1319 -2.3156 -0.3153
 7189SOL    HW223009   6.747   3.252   6.368  2.6254  1.2557  0.2403
 7190SOL     OW23010   7.029   1.279   7.585 -0.1451 -0.0540 -0.1960
 7190SOL    HW123011   6.977   1.274   7.504  0.0061  2.6340 -0.5532
 7190SOL    HW223012   7.120   1.279   7.555 -0.0874  3.2399 -0.3493
 7191SOL     OW23013   0.063   6.226   9.206  0.6719  0.3841 -0.3694
 7191SOL    HW123014  -0.007   6.232   9.142  0.8892  0.3609 -0.6145
 7191SOL    HW223015   0.143   6.231   9.154  0.8590  1.1007 -0.0277
 7192SOL     OW23016   4.171   4.018   8.652 -0.1967  0.3036 -0.2127
 7192SOL    HW123017   4.153   4.042   8.743  0.5201  1.8408 -0.4409
 7192SOL    HW223018   4.173   4.102   8.606  1.4290 -0.2855 -1.2813
 7193SOL     OW23019   3.892   2.484   1.159  0.2417  0.1075  0.5466
 7193SOL    HW123020   3.800   2.508   1.169 -0.1793 -0.3845 -1.6380
 7193SOL    HW223021   3.893   2.419   1.089  2.0018 -1.8684  2.2448
 7194SOL     OW23022   4.854   5.484   3.693 -0.0087 -0.2119 -0.4253
 7194SOL    HW123023   4.903   5.548   3.745  0.7855 -0.6509 -0.6162
 7194SOL    HW223024   4.885   5.496   3.604 -0.8947  0.0942 -0.7028
 7195SOL     OW23025   5.947   6.978   5.315  0.3872 -0.3008 -0.0067
 7195SOL    HW123026   5.912   6.930   5.390 -0.8649 -0.2152 -0.5126
 7195SOL    HW223027   5.894   6.949   5.241  1.8883 -0.7041 -0.9608
 7196SOL     OW23028   7.822   7.571   7.754 -0.4012 -0.1125 -0.0671
 7196SOL    HW123029   7.744   7.598   7.706  0.0299  0.5411 -0.4170
 7196SOL    HW223030   7.808   7.478   7.774  0.1029 -0.8716 -2.8706
 7197SOL     OW23031   3.583   5.261   2.435  0.9010  0.4103  0.4489
 7197SOL    HW123032   3.612   5.183   2.387  1.5568  0.8731  0.0742
 7197SOL    HW223033   3.602   5.241   2.527  0.5870 -0.0782  0.4087
 7198SOL     OW23034   1.159   4.950   1.657 -0.1409  0.6021  0.0439
 7198SOL    HW123035   1.153   5.009   1.581  1.2315 -0.0414 -0.6013
 7198SOL    HW223036   1.166   4.863   1.619  1.1619  0.3193  0.8798
 7199SOL     OW23037   1.301   3.084   2.408 -0.1264 -0.4163  0.0764
 7199SOL    HW123038   1.252   3.068   2.327  0.3613 -3.1426  0.2585
 7199SOL    HW223039   1.235   3.115   2.470 -0.7384  0.4051 -0.9369
 7200SOL     OW23040   5.598   3.899   0.023 -0.7632 -0.0433 -0.0484
 7200SOL    HW123041   5.514   3.879  -0.017 -0.9617 -0.9724  0.7911
 7200SOL    HW223042   5.616   3.824   0.080 -0.8526  1.5416  2.1789
 7201SOL     OW23043   1.834   2.134   6.916  0.1189  0.9814  0.4070
 7201SOL    HW123044   1.861   2.089   6.996  0.5805  0.4941 -0.0150
 7201SOL    HW223045   1.891   2.098   6.848 -0.7378  0.8761 -0.2679
 7202SOL     OW23046   7.368   4.336   9.544  0.1251 -0.0444 -0.0179
 7202SOL    HW123047   7.312   4.259   9.558  0.2046 -0.4417 -1.7225
 7202SOL    HW223048   7.440   4.324   9.606  0.4781 -1.7168 -0.6833
 7203SOL     OW23049   4.638   1.347   4.195  0.1623  0.6276 -0.0665
 7203SOL    HW123050   4.599   1.385   4.273  0.9569 -1.1423  1.2536
 7203SOL    HW223051   4.581   1.274   4.171  2.2174 -1.7080  1.6273
 7204SOL     OW23052   5.072   5.651  11.880  0.0559 -0.1898 -0.3604
 7204SOL    HW123053   5.025   5.631  11.961  0.7841 -1.1134 -0.1528
 7204SOL    HW223054   5.157   5.685  11.909  0.4785 -0.9103 -0.7270
 7205SOL     OW23055   5.829   4.798   5.675 -0.0690  0.3554 -0.0239
 7205SOL    HW123056   5.751   4.821   5.725 -0.3467  3.0644 -1.5046
 7205SOL    HW223057   5.888   4.757   5.739 -2.1642 -0.6516  1.3866
 7206SOL     OW23058   2.910   4.630   2.415 -0.1175  0.1548 -0.0013
 7206SOL    HW123059   2.990   4.597   2.373 -0.4381  0.1340 -0.6120
 7206SOL    HW223060   2.880   4.558   2.470 -0.3365 -0.2669 -0.6571
 7207SOL     OW23061   3.361   5.035   5.607 -0.1893  0.1419  0.1105
 7207SOL    HW123062   3.396   4.983   5.680 -1.6225 -1.3877 -0.2348
 7207SOL    HW223063   3.438   5.076   5.568  1.0758 -2.0519  0.1670
 7208SOL     OW23064   5.642   1.172   1.025  0.3507  0.6252  0.7274
 7208SOL    HW123065   5.612   1.182   0.935 -1.1785 -0.6284  1.0533
 7208SOL    HW223066   5.603   1.089   1.054  1.6050  0.5207  2.2349
 7209SOL     OW23067   4.916   4.208   9.908 -0.4289 -0.0196  0.1761
 7209SOL    HW123068   4.961   4.254   9.837  0.8187  0.4216  1.2095
 7209SOL    HW223069   4.824   4.205   9.881  0.1201 -0.5300 -1.7883
 7210SOL     OW23070   0.203   0.296  10.286 -0.3254 -0.8753  0.3749
 7210SOL    HW123071   0.183   0.389  10.298 -1.0760 -0.3798 -3.4577
 7210SOL    HW223072   0.119   0.256  10.262  0.2535 -2.2836  0.5635
 7211SOL     OW23073   7.701   5.272   2.224  0.3206 -0.1860 -0.2904
 7211SOL    HW123074   7.759   5.223   2.165 -0.4906 -1.1281 -0.3181
 7211SOL    HW223075   7.657   5.205   2.276  0.0874  0.5794  0.5226
 7212SOL     OW23076   0.882   0.723   5.426  0.0789 -0.0261  0.1328
 7212SOL    HW123077   0.926   0.669   5.361  1.8640  0.2159  1.0566
 7212SOL    HW223078   0.885   0.811   5.390  1.2775  0.1466  0.5968
 7213SOL     OW23079   6.772   7.414  11.508 -0.0986 -0.1521  0.2654
 7213SOL    HW123080   6.818   7.371  11.436  1.1091  2.2591 -0.5564
 7213SOL    HW223081   6.684   7.430  11.475  0.1168 -0.0374 -0.2610
 7214SOL     OW23082   7.632   0.070   0.625 -0.3735  0.1759  0.6259
 7214SOL    HW123083   7.599   0.158   0.608  2.6127  1.2313 -0.3378
 7214SOL    HW223084   7.570   0.033   0.688 -3.4782  1.7516 -1.2700
 7215SOL     OW23085   2.301   2.015   7.655 -0.8818 -0.6266 -0.3052
 7215SOL    HW123086   2.313   1.937   7.709  1.3097 -0.1106  0.0706
 7215SOL    HW223087   2.254   2.076   7.711  0.5746 -0.4223  0.7577
 7216SOL     OW23088   5.818   5.530   9.447 -0.4643 -0.6388  0.0734
 7216SOL    HW123089   5.790   5.618   9.470 -0.7061 -1.0153  1.3080
 7216SOL    HW223090   5.908   5.541   9.416 -0.1377 -0.0574  1.1512
 7217SOL     OW23091   6.569   1.599   1.781  0.0459 -0.1222 -0.7647
 7217SOL    HW123092   6.567   1.639   1.694 -1.0484  0.8399 -0.3152
 7217SOL    HW223093   6.488   1.627   1.823 -0.5403 -2.3903 -0.2224
 7218SOL     OW23094   0.395   5.766  12.254  0.0782 -0.1864  0.5104
 7218SOL    HW123095   0.304   5.739  12.259  0.0124  0.1709  1.3567
 7218SOL    HW223096   0.393   5.850  12.208 -0.0614 -0.0055  0.8415
 7219SOL     OW23097   0.667   5.988   3.096 -0.0705  0.2830 -0.4000
 7219SOL    HW123098   0.733   5.921   3.080 -1.9689 -1.3830 -1.7404
 7219SOL    HW223099   0.672   6.005   3.190  2.2306  0.2443 -0.4610
 7220SOL     OW23100   1.137   4.909  10.229  0.8912  0.1153 -0.0814
 7220SOL    HW123101   1.169   4.875  10.312 -0.2008 -0.8564 -0.0346
 7220SOL    HW223102   1.121   5.002  10.246  4.4848  0.9267 -0.3825
 7221SOL     OW23103   7.937   5.395  10.414  0.2706  0.2452 -0.1324
 7221SOL    HW123104   7.889   5.419  10.335 -0.2001 -2.3356 -0.7248
 7221SOL    HW223105   8.022   5.363  10.383  1.0738  1.5228  0.6415
 7222SOL     OW23106   7.139   2.542   5.660 -0.3570 -0.3565 -0.4902
 7222SOL    HW123107   7.055   2.582   5.683 -1.1733 -1.7080 -0.9687
 7222SOL    HW223108   7.201   2.577   5.724 -0.7556  2.4194 -1.4833
 7223SOL     OW23109   3.781   2.866   1.745  0.2480  0.2462 -0.3473
 7223SOL    HW123110   3.866   2.835   1.777  0.1941 -0.8096 -1.1489
 7223SOL    HW223111   3.755   2.800   1.680 -1.1740  0.5616 -0.1300
 7224SOL     OW23112   1.531   7.303  10.974 -0.2205 -0.3919 -0.1087
 7224SOL    HW123113   1.529   7.246  11.051 -1.6399  0.3821  0.4696
 7224SOL    HW223114   1.445   7.289  10.932  0.5986 -0.9507 -1.6884
 7225SOL     OW23115   6.501   0.383   3.362  0.1218 -0.3128  0.4549
 7225SOL    HW123116   6.486   0.476   3.349 -1.7893 -0.5763  0.3863
 7225SOL    HW223117   6.527   0.351   3.275 -1.7474 -0.2254 -0.1883
 7226SOL     OW23118   2.445   5.611   1.884  0.0805  0.3622  0.0319
 7226SOL    HW123119   2.416   5.560   1.808 -1.9689 -0.8767  1.5560
 7226SOL    HW223120   2.502   5.678   1.847 -0.7961 -0.2299 -2.5906
 7227SOL     OW23121   0.843   4.467   3.420  0.0101 -0.2222 -0.0785
 7227SOL    HW123122   0.853   4.563   3.423 -2.1971  0.0604 -0.3594
 7227SOL    HW223123   0.904   4.435   3.486  1.0925  1.3473 -0.2619
 7228SOL     OW23124   2.371   5.081   5.455  0.4813 -0.2608 -0.1904
 7228SOL    HW123125   2.418   5.135   5.392  0.6966  1.1723  1.1205
 7228SOL    HW223126   2.412   4.995   5.450  0.2331 -0.2869 -2.2416
 7229SOL     OW23127   1.362   2.389   2.782  0.0875 -0.5077  0.1170
 7229SOL    HW123128   1.286   2.433   2.745 -0.2525 -0.6781  0.6110
 7229SOL    HW223129   1.385   2.441   2.859  0.0018 -0.8913  0.4065
 7230SOL     OW23130   4.406   4.109   7.333  0.0451 -0.3868  0.0093
 7230SOL    HW123131   4.416   4.200   7.360 -0.1870 -0.3207 -0.1236
 7230SOL    HW223132   4.313   4.090   7.345  0.0704 -0.5697 -0.0737
 7231SOL     OW23133   1.996   2.742   6.121  0.1900  0.0061  0.0151
 7231SOL    HW123134   2.034   2.829   6.110  0.3834 -0.1578 -0.6781
 7231SOL    HW223135   1.951   2.725   6.038  0.0729 -0.5117  0.1840
 7232SOL     OW23136   1.351   4.556   2.213  0.1158 -0.1668  0.0148
 7232SOL    HW123137   1.350   4.497   2.138  0.7194 -0.3556  0.1499
 7232SOL    HW223138   1.388   4.504   2.284  0.1769  0.2168  0.2702
 7233SOL     OW23139   5.555   1.545   5.516 -0.7522 -0.2540  0.1696
 7233SOL    HW123140   5.464   1.553   5.546 -1.3055  2.2666 -1.7652
 7233SOL    HW223141   5.551   1.483   5.443 -1.0229  0.1928 -0.2001
 7234SOL     OW23142   2.760   0.298   3.234 -0.1512 -0.0697 -0.2373
 7234SOL    HW123143   2.748   0.393   3.225  0.6607  0.1452  0.7603
 7234SOL    HW223144   2.843   0.289   3.281  0.4880 -1.3097 -1.5250
 7235SOL     OW23145   4.332   0.723   3.804 -0.0299 -0.1283 -0.3250
 7235SOL    HW123146   4.387   0.645   3.804 -1.4126 -1.1411 -1.2049
 7235SOL    HW223147   4.345   0.761   3.890  1.3836 -0.7944 -0.2092
 7236SOL     OW23148   0.094   4.276  11.432 -0.0816  0.1174  0.2283
 7236SOL    HW123149   0.087   4.361  11.475 -1.5686  0.4628 -0.6741
 7236SOL    HW223150   0.154   4.291  11.359 -0.6527  0.5044 -0.1704
 7237SOL     OW23151   6.951   6.714   6.745  0.4664 -0.2911  0.0983
 7237SOL    HW123152   7.008   6.765   6.688 -2.0386  1.0330 -1.3953
 7237SOL    HW223153   6.895   6.665   6.685 -2.3582  1.2484  1.2926
 7238SOL     OW23154   6.830   6.372   6.912  0.3418  0.7535 -0.1574
 7238SOL    HW123155   6.894   6.333   6.852 -0.3566 -1.1747  0.2586
 7238SOL    HW223156   6.817   6.305   6.979 -2.5163  0.7778 -0.5396
 7239SOL     OW23157   7.549   1.170   4.110 -0.3099  0.2275 -0.6994
 7239SOL    HW123158   7.545   1.164   4.206  0.7581 -0.6165 -0.6882
 7239SOL    HW223159   7.464   1.138   4.080 -1.1280  1.6825 -0.0044
 7240SOL     OW23160   1.991   2.126   2.939 -0.0741 -0.7020 -0.4401
 7240SOL    HW123161   1.968   2.174   3.018 -1.2059  0.2235 -1.2958
 7240SOL    HW223162   1.954   2.039   2.952  0.5590 -0.8558  0.4265
 7241SOL     OW23163   0.641   0.064  10.194  0.0979 -0.0802 -0.1400
 7241SOL    HW123164   0.593  -0.019  10.194  0.3684 -0.2393 -0.4615
 7241SOL    HW223165   0.595   0.119  10.130 -0.1093  0.0396  0.1072
 7242SOL     OW23166   0.707   2.573   1.067 -0.4107 -0.0748  0.1147
 7242SOL    HW123167   0.634   2.522   1.033 -0.7235 -0.7526  1.7311
 7242SOL    HW223168   0.714   2.548   1.159  1.5542  0.3348  0.1310
 7243SOL     OW23169   6.505   5.430   4.739  0.3323  0.6468 -0.2297
 7243SOL    HW123170   6.533   5.353   4.690 -0.1581  0.7268 -0.6428
 7243SOL    HW223171   6.564   5.500   4.711 -0.2848  0.8244 -1.1242
 7244SOL     OW23172   3.976   5.253   7.992  0.3056  0.1168 -0.5231
 7244SOL    HW123173   3.881   5.254   8.003  0.3725  0.1989  0.1131
 7244SOL    HW223174   3.996   5.336   7.949 -0.0618 -0.6092 -2.1439
 7245SOL     OW23175   0.303   2.346   3.905  0.0496  0.3363 -0.2173
 7245SOL    HW123176   0.396   2.359   3.920 -0.1925  1.5984  0.3698
 7245SOL    HW223177   0.290   2.365   3.812  0.3106  0.5878 -0.2025
 7246SOL     OW23178   1.826   6.873  12.412 -0.2241 -0.0492  0.2698
 7246SOL    HW123179   1.739   6.851  12.378  0.2855 -0.0192 -1.1397
 7246SOL    HW223180   1.814   6.956  12.458 -1.1652 -0.6643  1.1689
 7247SOL     OW23181   1.757   0.729   9.011 -0.5149  0.0757  0.5046
 7247SOL    HW123182   1.725   0.669   9.079 -0.4469  0.7143  1.1021
 7247SOL    HW223183   1.807   0.795   9.059 -0.2778  0.4042 -0.1934
 7248SOL     OW23184   3.492   5.797   5.926 -0.5821 -0.3441 -0.3959
 7248SOL    HW123185   3.533   5.742   5.858  1.3530 -0.2102  0.5842
 7248SOL    HW223186   3.469   5.735   5.995  1.7379 -0.0379  0.7754
 7249SOL     OW23187   4.239   1.769   5.588 -0.5128  0.4735 -0.3086
 7249SOL    HW123188   4.334   1.779   5.582 -0.6011  0.9371 -1.0754
 7249SOL    HW223189   4.223   1.676   5.571 -0.0462 -0.0978  2.0257
 7250SOL     OW23190   6.315   4.812   2.385  0.3723  0.9660 -0.5379
 7250SOL    HW123191   6.251   4.824   2.316 -1.4827  0.0390  0.9082
 7250SOL    HW223192   6.321   4.717   2.395  0.3524  1.0826  0.7569
 7251SOL     OW23193   3.190   4.122   7.792  0.2146 -0.8017 -0.2531
 7251SOL    HW123194   3.239   4.057   7.842 -0.2859 -2.2693 -1.5808
 7251SOL    HW223195   3.114   4.074   7.758 -1.3756  1.0375  0.5390
 7252SOL     OW23196   7.933   1.064   8.937 -0.9871  0.0409  0.4689
 7252SOL    HW123197   7.949   0.985   8.886  0.1609  0.6068 -0.0844
 7252SOL    HW223198   7.918   1.032   9.027  0.8502 -0.7331  0.5404
 7253SOL     OW23199   5.951   7.134   4.503  0.0675  0.4902  0.0518
 7253SOL    HW123200   5.913   7.220   4.520 -0.4818  0.1075  0.7970
 7253SOL    HW223201   5.978   7.102   4.590 -1.6583 -0.9774  0.0984
 7254SOL     OW23202   0.847   3.582   2.257  0.0395 -0.2879  0.1451
 7254SOL    HW123203   0.898   3.523   2.313 -0.1908 -0.4652  0.1675
 7254SOL    HW223204   0.913   3.625   2.202  0.1383 -1.1799 -0.4511
 7255SOL     OW23205   6.166   7.142  10.944 -0.2120  0.3065  0.4689
 7255SOL    HW123206   6.182   7.230  10.911 -0.0388 -0.0897 -0.5440
 7255SOL    HW223207   6.218   7.085  10.887  0.2817 -0.3991  1.5662
 7256SOL     OW23208   6.229   1.462   1.572 -0.4764 -0.0478  0.6114
 7256SOL    HW123209   6.241   1.529   1.504 -1.0310 -0.2526  0.3036
 7256SOL    HW223210   6.299   1.398   1.554 -1.6475 -0.9861 -0.8659
 7257SOL     OW23211   6.722   5.201   4.043  0.0583  0.1160 -0.0243
 7257SOL    HW123212   6.796   5.260   4.025  0.3309 -0.3075 -0.2989
 7257SOL    HW223213   6.720   5.195   4.139 -0.9976  1.8676  0.0985
 7258SOL     OW23214   5.953   0.988   5.716  0.3455  0.7428 -0.1761
 7258SOL    HW123215   5.976   0.901   5.751  0.9837  0.2628 -1.7057
 7258SOL    HW223216   5.868   1.007   5.755 -0.0071 -0.7753 -0.1168
 7259SOL     OW23217   2.972   5.777   1.804  0.7812 -0.1559  0.4037
 7259SOL    HW123218   2.980   5.768   1.709 -0.2214  4.0618 -0.2813
 7259SOL    HW223219   3.062   5.767   1.836  1.2042 -1.2566 -1.0113
 7260SOL     OW23220   3.048   5.689   1.508 -0.0608  0.4620 -0.1580
 7260SOL    HW123221   3.125   5.740   1.484 -0.7851  0.6446 -2.3159
 7260SOL    HW223222   2.975   5.735   1.465 -1.0637 -0.9556 -0.0456
 7261SOL     OW23223   4.033   2.978   7.478 -0.1252  0.5415 -0.2753
 7261SOL    HW123224   3.993   3.009   7.397 -0.0920  2.5316  0.3890
 7261SOL    HW223225   4.126   3.001   7.468  0.5281 -2.1343 -0.9503
 7262SOL     OW23226   6.378   1.592  11.439  0.2608  0.1004 -0.3531
 7262SOL    HW123227   6.471   1.576  11.426  0.0810 -1.0310 -0.3163
 7262SOL    HW223228   6.367   1.598  11.534  0.6396  2.5631 -0.3959
 7263SOL     OW23229   2.906   6.859   4.163  0.2484 -0.5376  0.2289
 7263SOL    HW123230   2.867   6.780   4.201 -1.5657  0.1941  0.0120
 7263SOL    HW223231   2.994   6.862   4.199  0.2681 -2.5111  0.4412
 7264SOL     OW23232   5.788   6.157   0.050  0.2910  0.7264  0.2269
 7264SOL    HW123233   5.847   6.085   0.028 -0.5196 -0.2915  1.2154
 7264SOL    HW223234   5.768   6.143   0.143 -0.6980  1.6290  0.1699
 7265SOL     OW23235   0.548   2.387   1.798  0.1003 -0.2948 -0.1009
 7265SOL    HW123236   0.511   2.330   1.865  0.9290 -0.4100  0.2808
 7265SOL    HW223237   0.622   2.336   1.762 -0.3382 -0.2458 -1.1185
 7266SOL     OW23238   7.648   1.670   6.998 -0.0866 -0.2396  0.2074
 7266SOL    HW123239   7.726   1.700   7.044 -0.7984  1.2746  0.4772
 7266SOL    HW223240   7.579   1.732   7.024 -1.5680 -1.9318  0.5562
 7267SOL     OW23241   6.285   2.325   2.732 -0.2953 -0.4192 -0.5037
 7267SOL    HW123242   6.315   2.319   2.823 -1.7428  0.6780  0.0839
 7267SOL    HW223243   6.357   2.288   2.681  0.5553 -1.0534  1.0787
 7268SOL     OW23244   0.103   0.971  10.162 -0.5097  0.4938  0.4462
 7268SOL    HW123245   0.071   0.894  10.115 -1.3809  1.1858 -0.1214
 7268SOL    HW223246   0.034   0.993  10.223  0.1944  0.2099  1.3761
 7269SOL     OW23247   2.467   2.660  12.011 -0.1815  0.1822 -0.3704
 7269SOL    HW123248   2.443   2.712  11.935 -0.5006  1.3513  0.5064
 7269SOL    HW223249   2.556   2.630  11.993  0.2924  1.6517 -0.5925
 7270SOL     OW23250   7.115   7.829   8.805  0.1680 -0.7888 -0.0329
 7270SOL    HW123251   7.183   7.766   8.783  0.2655 -0.2948 -1.1953
 7270SOL    HW223252   7.040   7.802   8.751  0.2106  0.0746 -0.5294
 7271SOL     OW23253   6.038   5.545   4.886  0.6943 -0.5383  0.1097
 7271SOL    HW123254   6.063   5.506   4.970  2.0527 -0.7094 -0.3407
 7271SOL    HW223255   6.117   5.590   4.857 -0.4492  1.5059  0.0056
 7272SOL     OW23256   5.638   5.142  11.461 -0.2471 -0.2156 -0.2077
 7272SOL    HW123257   5.569   5.170  11.522 -0.6374  0.2724 -0.8598
 7272SOL    HW223258   5.614   5.182  11.377  1.6124  1.1825 -0.1313
 7273SOL     OW23259   0.323   7.261   9.939 -0.9953  0.6572  0.4749
 7273SOL    HW123260   0.307   7.208  10.017 -1.6033  1.4668  0.9155
 7273SOL    HW223261   0.239   7.260   9.892 -0.5547 -0.0553 -0.3256
 7274SOL     OW23262   6.035   1.649  11.145 -0.0720  0.6287  0.4232
 7274SOL    HW123263   6.068   1.568  11.107  0.1950  0.1609  1.6446
 7274SOL    HW223264   6.067   1.718  11.086 -1.7633 -0.2209 -1.6412
 7275SOL     OW23265   6.627   2.890   7.873  0.9196  0.4336  0.5613
 7275SOL    HW123266   6.636   2.795   7.864  0.7057  0.3959  0.7287
 7275SOL    HW223267   6.591   2.918   7.789  1.2140  0.3985  0.4234
 7276SOL     OW23268   0.838   2.451  12.276  0.2141  0.2250  0.1253
 7276SOL    HW123269   0.882   2.387  12.332  0.1999  1.4691  1.6198
 7276SOL    HW223270   0.779   2.498  12.334  1.5590  2.8708 -0.4600
 7277SOL     OW23271   7.430   7.333   3.772  0.2239  0.1867  0.3178
 7277SOL    HW123272   7.449   7.393   3.700 -2.4448 -0.3157 -0.9096
 7277SOL    HW223273   7.387   7.258   3.730  2.0747 -1.9568  1.9858
 7278SOL     OW23274   3.003   5.024   0.022  0.1155  0.8265 -0.1389
 7278SOL    HW123275   3.075   5.040   0.083  1.7976  0.2178 -1.8470
 7278SOL    HW223276   2.969   4.938   0.047  1.1225  0.3565 -0.3375
 7279SOL     OW23277   5.425   1.101  12.037  0.3886  0.0008 -0.0321
 7279SOL    HW123278   5.362   1.119  11.967 -1.8930 -1.8665  1.3950
 7279SOL    HW223279   5.416   1.175  12.097 -0.8791 -0.4601  0.3900
 7280SOL     OW23280   4.429   0.023   2.670  0.7181  0.3280  0.4779
 7280SOL    HW123281   4.398   0.032   2.760  0.4350  1.7571  0.2611
 7280SOL    HW223282   4.387  -0.057   2.638  0.9613 -0.2965  1.6520
 7281SOL     OW23283   6.729   5.741   8.814 -0.0195 -0.1543  0.9031
 7281SOL    HW123284   6.721   5.654   8.776  2.7698 -1.1422  2.3313
 7281SOL    HW223285   6.684   5.735   8.899 -1.1395  0.3146  0.3739
 7282SOL     OW23286   0.264   2.623   7.345 -0.2385  0.1076 -0.2831
 7282SOL    HW123287   0.238   2.684   7.414  1.3012  1.4170 -0.7675
 7282SOL    HW223288   0.240   2.537   7.377 -2.2053  0.9351  0.5878
 7283SOL     OW23289   6.270   4.592   5.118  0.3348  0.1647 -0.0665
 7283SOL    HW123290   6.236   4.628   5.200  2.1631 -0.4206  1.0020
 7283SOL    HW223291   6.245   4.500   5.120  0.1927  0.1983 -0.2722
 7284SOL     OW23292   6.720   7.904   3.459 -0.3222  0.4255  0.3680
 7284SOL    HW123293   6.630   7.876   3.446  0.1275 -0.6533 -0.5856
 7284SOL    HW223294   6.755   7.844   3.526  0.5809 -1.2874 -1.5288
 7285SOL     OW23295   5.445   2.178   8.794  0.0806 -0.1209 -0.6633
 7285SOL    HW123296   5.508   2.246   8.817 -0.5769  0.1851  0.3458
 7285SOL    HW223297   5.456   2.112   8.863 -1.5874  0.5668  0.3283
 7286SOL     OW23298   3.693   1.813  11.652  0.3589 -0.1410 -0.1510
 7286SOL    HW123299   3.632   1.855  11.712 -0.5995 -0.5223 -0.8267
 7286SOL    HW223300   3.778   1.854  11.670 -0.0563  0.2576  0.9360
 7287SOL     OW23301   4.229   7.029  11.977 -0.0878  0.0320  0.0988
 7287SOL    HW123302   4.178   7.006  12.055  0.6082 -0.1825  0.4993
 7287SOL    HW223303   4.252   6.945  11.937 -2.6898  0.1317 -1.8783
 7288SOL     OW23304   2.538   1.451  12.021  0.5300  0.2036 -0.3543
 7288SOL    HW123305   2.568   1.368  11.984  0.2892  0.6698 -1.6569
 7288SOL    HW223306   2.577   1.518  11.964  0.8311  0.9971  0.7522
 7289SOL     OW23307   6.529   0.093   7.102 -0.5214  0.3862  0.2653
 7289SOL    HW123308   6.603   0.132   7.148  0.4916 -0.9770 -0.1278
 7289SOL    HW223309   6.547   0.109   7.009  0.0790 -1.2027  0.0758
 7290SOL     OW23310   7.449   6.897   8.768 -0.5565 -0.2017 -0.2278
 7290SOL    HW123311   7.445   6.977   8.821  0.8878 -1.0270  1.2100
 7290SOL    HW223312   7.362   6.890   8.728 -1.6427  0.5922  1.8531
 7291SOL     OW23313   7.671   6.460   4.321  0.1297  0.1558 -0.1399
 7291SOL    HW123314   7.626   6.528   4.371  1.0242 -0.0024  0.9159
 7291SOL    HW223315   7.736   6.508   4.270 -1.2483  0.3975 -1.7580
 7292SOL     OW23316   2.291   7.311  11.085  0.6524 -0.4121 -0.3699
 7292SOL    HW123317   2.335   7.229  11.110  1.0116  0.1632  0.9187
 7292SOL    HW223318   2.320   7.375  11.149 -2.3326 -0.0690  0.7815
 7293SOL     OW23319   1.360   1.785   9.541 -0.0714  0.4232  0.4011
 7293SOL    HW123320   1.341   1.694   9.564  0.3422 -0.3495 -2.0419
 7293SOL    HW223321   1.455   1.789   9.531 -0.1734  0.8295 -0.5613
 7294SOL     OW23322   2.145   4.343   9.209 -0.1823 -0.4637 -0.0968
 7294SOL    HW123323   2.221   4.331   9.152 -0.6044  0.3299 -0.8544
 7294SOL    HW223324   2.078   4.382   9.152 -0.6609  0.2269  0.9110
 7295SOL     OW23325   3.150   2.455   3.002  0.8720  0.4599  0.2042
 7295SOL    HW123326   3.180   2.410   2.923 -1.1076 -0.2778 -0.1997
 7295SOL    HW223327   3.074   2.506   2.973 -1.4137 -1.6673  1.9639
 7296SOL     OW23328   1.596   0.843   9.537  0.4961  0.5193  0.4750
 7296SOL    HW123329   1.599   0.750   9.560 -1.4003 -0.3498 -2.3368
 7296SOL    HW223330   1.688   0.867   9.522  0.8632 -1.4323 -0.6224
 7297SOL     OW23331   2.945   6.991   0.532 -0.4506  0.1744  0.4091
 7297SOL    HW123332   2.941   6.976   0.627 -0.8212 -2.0159  0.1001
 7297SOL    HW223333   2.859   6.965   0.500  0.0202 -0.1410 -0.6422
 7298SOL     OW23334   3.130   1.388   8.846 -0.7721  0.1526 -0.1433
 7298SOL    HW123335   3.156   1.458   8.907  0.0515  0.4142 -0.7813
 7298SOL    HW223336   3.205   1.329   8.845 -1.5460 -0.8837  0.5591
 7299SOL     OW23337   3.730   7.683  11.309 -0.0337  0.4848  0.0892
 7299SOL    HW123338   3.803   7.703  11.367  1.6901  1.2632 -2.1963
 7299SOL    HW223339   3.662   7.648  11.366  1.4551  1.4196  2.5564
 7300SOL     OW23340   2.526   4.730   0.434  0.2481  0.1558 -0.1971
 7300SOL    HW123341   2.543   4.683   0.516 -1.9231 -0.1738  0.1232
 7300SOL    HW223342   2.499   4.662   0.373 -0.3502  0.6674 -0.5094
 7301SOL     OW23343   6.115   1.869   6.008  0.2307 -0.3492 -0.6209
 7301SOL    HW123344   6.151   1.801   6.065 -0.1269 -0.7879 -0.9108
 7301SOL    HW223345   6.084   1.937   6.068 -1.4580 -1.4413 -0.1860
 7302SOL     OW23346   4.528   5.001  12.070  0.1804  0.1003  0.0304
 7302SOL    HW123347   4.459   5.024  12.133 -1.3975  0.1022 -1.6148
 7302SOL    HW223348   4.515   5.061  11.997  0.8492 -1.0312 -1.0572
 7303SOL     OW23349   5.490   4.612   2.735 -0.3976  0.0739  0.4876
 7303SOL    HW123350   5.476   4.586   2.644 -1.0009  0.1518  0.5545
 7303SOL    HW223351   5.585   4.608   2.747 -0.3162  0.0792 -0.1464
 7304SOL     OW23352   3.648   4.385   8.408  0.5706 -0.2112  0.2153
 7304SOL    HW123353   3.600   4.390   8.326 -1.4006 -0.1187  1.3013
 7304SOL    HW223354   3.642   4.293   8.434  0.5537 -0.1086  0.5858
 7305SOL     OW23355   2.868   5.382   7.475 -0.1045  0.4102 -0.6043
 7305SOL    HW123356   2.860   5.465   7.522 -0.9972  0.1365 -0.2525
 7305SOL    HW223357   2.796   5.383   7.412  1.8225  1.3470 -2.9339
 7306SOL     OW23358   1.839   4.625  11.532  0.0580  0.1530 -0.1470
 7306SOL    HW123359   1.825   4.618  11.627 -0.0438 -1.1762 -0.2369
 7306SOL    HW223360   1.878   4.541  11.508 -0.5761  0.1962 -1.3905
 7307SOL     OW23361   0.667   5.283   9.983 -0.1168 -0.7537  0.2580
 7307SOL    HW123362   0.729   5.324   9.922 -0.7482 -2.3828 -1.5680
 7307SOL    HW223363   0.599   5.349   9.996 -0.2686 -0.5726 -1.2992
 7308SOL     OW23364   1.013   4.893   9.716 -0.2955 -0.1678  0.7309
 7308SOL    HW123365   1.103   4.875   9.690  0.4608  3.0564  0.7529
 7308SOL    HW223366   0.962   4.884   9.636 -0.1232 -2.3796  0.7875
 7309SOL     OW23367   3.984   1.303   0.102  0.6010  0.2606  0.1433
 7309SOL    HW123368   3.962   1.345   0.185 -1.4878 -0.1939 -0.1302
 7309SOL    HW223369   4.032   1.371   0.053 -0.2519  1.3720  0.7905
 7310SOL     OW23370   4.328   6.285   9.056  0.2826  0.5585 -0.2527
 7310SOL    HW123371   4.378   6.277   9.137 -1.2044  0.9698  0.7226
 7310SOL    HW223372   4.282   6.202   9.048  0.1149  0.6719 -0.4748
 7311SOL     OW23373   5.936   2.706   3.145 -0.0672  0.0989  0.2904
 7311SOL    HW123374   5.973   2.774   3.089  0.8727 -0.5304  0.1031
 7311SOL    HW223375   5.900   2.642   3.084  0.9273 -0.5718  0.3812
 7312SOL     OW23376   5.424   7.662   3.246 -0.0396  0.4167  0.1424
 7312SOL    HW123377   5.374   7.737   3.278  0.6635  1.7077 -1.6121
 7312SOL    HW223378   5.381   7.637   3.165 -0.4833 -1.3704  0.8698
 7313SOL     OW23379   3.968   6.391   2.854 -0.3811 -0.0968 -0.2089
 7313SOL    HW123380   4.034   6.437   2.905 -0.8420 -0.6594  0.9318
 7313SOL    HW223381   3.951   6.311   2.903 -4.7468  1.7266  1.8353
 7314SOL     OW23382   4.332   3.713   9.777 -0.3344  0.2632  0.3808
 7314SOL    HW123383   4.303   3.705   9.686 -0.1477  1.2246  0.2272
 7314SOL    HW223384   4.427   3.719   9.772 -0.2676 -0.4573  0.7043
 7315SOL     OW23385   6.352   0.411  11.519 -0.3676 -0.0286 -0.2215
 7315SOL    HW123386   6.258   0.403  11.501 -0.8626  0.7611  1.6980
 7315SOL    HW223387   6.388   0.325  11.496 -1.7530 -0.7024  0.0081
 7316SOL     OW23388   2.973   3.723   2.703 -0.2129 -0.1194 -0.3098
 7316SOL    HW123389   2.898   3.664   2.712 -0.2585  0.1301  1.2942
 7316SOL    HW223390   3.049   3.668   2.726 -0.1280  0.1085 -0.0251
 7317SOL     OW23391   0.640   1.187   9.853  0.2926 -0.2681 -0.0154
 7317SOL    HW123392   0.689   1.247   9.797 -0.0872 -0.1370 -0.2046
 7317SOL    HW223393   0.580   1.142   9.793 -0.3207  0.0801  0.3305
 7318SOL     OW23394   3.215   4.574   4.946 -0.5677 -0.6802  0.4495
 7318SOL    HW123395   3.121   4.580   4.931 -0.3489  0.6013 -0.5391
 7318SOL    HW223396   3.227   4.603   5.036 -0.9471  0.9821 -0.0112
 7319SOL     OW23397   7.705   1.140   8.281 -0.1515  0.3563 -0.8437
 7319SOL    HW123398   7.621   1.165   8.321 -0.6284 -0.1694 -1.4729
 7319SOL    HW223399   7.691   1.153   8.187  0.6206  0.6513 -0.9253
 7320SOL     OW23400   6.302   1.116   7.702  0.5002 -0.3683  0.0446
 7320SOL    HW123401   6.387   1.088   7.734  1.1051  1.7898  0.5215
 7320SOL    HW223402   6.307   1.106   7.607  0.1518 -3.0295  0.2255
 7321SOL     OW23403   6.123   7.273   5.868  0.0486  0.2183 -0.4836
 7321SOL    HW123404   6.194   7.300   5.811  0.1995  1.9671  0.4687
 7321SOL    HW223405   6.124   7.336   5.940 -1.8855 -0.2684  0.0342
 7322SOL     OW23406   3.446   6.825   7.967 -0.0395 -0.0938 -0.6905
 7322SOL    HW123407   3.440   6.744   7.916  0.6150 -0.7736  0.2736
 7322SOL    HW223408   3.526   6.816   8.018 -0.8185  0.4091  0.6975
 7323SOL     OW23409   2.106   1.811  11.683  0.1359 -0.0965 -0.3996
 7323SOL    HW123410   2.051   1.743  11.644 -0.7752  0.6996 -0.5372
 7323SOL    HW223411   2.058   1.892  11.668 -0.0106  0.3145  1.9085
 7324SOL     OW23412   3.714   1.738   5.804  0.0516  0.0671 -0.0570
 7324SOL    HW123413   3.806   1.725   5.783  0.0410 -2.9622  1.2479
 7324SOL    HW223414   3.686   1.808   5.746  3.1682  1.1722 -0.4102
 7325SOL     OW23415   2.985   3.050  10.534 -0.8460  0.2715  0.0167
 7325SOL    HW123416   2.954   2.962  10.554 -0.3197 -0.2614 -1.4381
 7325SOL    HW223417   3.069   3.037  10.490 -1.8088  1.3573 -2.2941
 7326SOL     OW23418   5.277   7.872   3.411  0.3197  0.3031 -0.9767
 7326SOL    HW123419   5.237   7.933   3.473 -0.2677 -0.3721 -0.6852
 7326SOL    HW223420   5.242   7.786   3.435  1.3041 -0.1815 -1.2529
 7327SOL     OW23421   1.126   2.406   4.785 -0.1348 -0.0597  0.4209
 7327SOL    HW123422   1.088   2.464   4.851 -0.9217 -2.0708  1.8649
 7327SOL    HW223423   1.214   2.387   4.817  0.4126  0.8988 -0.4579
 7328SOL     OW23424   7.910   6.794   1.529  0.2157  0.3443 -0.0825
 7328SOL    HW123425   7.885   6.750   1.610  0.9153  0.4201  0.1850
 7328SOL    HW223426   8.006   6.795   1.531  0.2328  0.5817 -0.7847
 7329SOL     OW23427   2.327   2.179   6.306  0.0024  0.2975  0.5016
 7329SOL    HW123428   2.265   2.193   6.378  1.3119  1.4017  1.4752
 7329SOL    HW223429   2.291   2.228   6.233 -0.9221 -0.1499  0.6449
 7330SOL     OW23430   1.559   0.827   3.140  0.4000 -0.2901  0.1168
 7330SOL    HW123431   1.624   0.850   3.074  0.9961  0.3437  0.9244
 7330SOL    HW223432   1.494   0.898   3.136 -0.6197 -1.2306 -1.1268
 7331SOL     OW23433   3.198   7.440   6.044 -0.4362  0.1906 -0.0711
 7331SOL    HW123434   3.186   7.430   5.950 -0.0521  1.5892 -0.2814
 7331SOL    HW223435   3.257   7.514   6.054  1.4903 -1.4049  1.2162
 7332SOL     OW23436   4.565   5.105  10.108 -0.2830  0.4863 -0.1724
 7332SOL    HW123437   4.553   5.030  10.050  1.6068 -0.3935  0.4775
 7332SOL    HW223438   4.656   5.099  10.136 -0.4239  2.3601  0.8531
 7333SOL     OW23439   0.654   1.804   2.336 -1.0663  0.0421 -0.1174
 7333SOL    HW123440   0.577   1.805   2.393  0.3794  0.8268  1.9558
 7333SOL    HW223441   0.688   1.715   2.344  0.1887  0.6101  1.9242
 7334SOL     OW23442   1.040   5.162  10.328  0.2130  0.3978 -0.0289
 7334SOL    HW123443   0.968   5.150  10.267  1.7314 -0.2611 -1.7550
 7334SOL    HW223444   1.012   5.235  10.384 -1.2684  0.9539 -1.4339
 7335SOL     OW23445   0.663   7.354   5.141 -0.3012  0.7036  0.1683
 7335SOL    HW123446   0.640   7.326   5.230 -0.7881  0.4651 -0.0306
 7335SOL    HW223447   0.711   7.279   5.105  0.3450  0.9969  0.4020
 7336SOL     OW23448   5.034   4.354   9.660  0.4625 -0.2578  0.0314
 7336SOL    HW123449   5.115   4.316   9.626  0.3540  0.6321 -1.2934
 7336SOL    HW223450   4.981   4.370   9.582 -0.0688  1.2417  0.6748
 7337SOL     OW23451   5.452   2.286   0.490  0.3758 -0.4056  0.2994
 7337SOL    HW123452   5.417   2.226   0.556 -1.7298 -0.3306 -0.6773
 7337SOL    HW223453   5.538   2.310   0.524  0.3377 -2.1728  1.8532
 7338SOL     OW23454   3.453   0.807   5.741 -0.0804  0.1909 -0.0751
 7338SOL    HW123455   3.510   0.884   5.730  1.4331 -0.5425  2.1053
 7338SOL    HW223456   3.512   0.736   5.763 -1.8046 -0.6032  2.3891
 7339SOL     OW23457   1.624   4.744   8.298  0.0449  0.2056 -0.2798
 7339SOL    HW123458   1.673   4.801   8.239 -0.0140 -0.1784 -0.7015
 7339SOL    HW223459   1.532   4.769   8.285 -0.0349 -0.4298 -0.9420
 7340SOL     OW23460   0.295   6.888   1.875 -0.2828 -0.5729  0.4281
 7340SOL    HW123461   0.202   6.888   1.898 -0.7411 -2.3291 -1.2331
 7340SOL    HW223462   0.299   6.848   1.789  1.8728  1.0631 -0.3248
 7341SOL     OW23463   0.786   3.718   3.777 -0.4222  0.1593  0.3976
 7341SOL    HW123464   0.714   3.732   3.716  0.3245 -0.6714 -0.7004
 7341SOL    HW223465   0.848   3.788   3.758 -0.0147 -0.3221 -0.0807
 7342SOL     OW23466   2.413   0.202  10.836 -0.4399  0.1531 -0.7620
 7342SOL    HW123467   2.442   0.146  10.764 -2.3758  1.3998 -2.6410
 7342SOL    HW223468   2.395   0.142  10.908 -1.7081 -1.6199 -2.4463
 7343SOL     OW23469   6.675   7.127  12.036  0.3207  0.2053  0.6278
 7343SOL    HW123470   6.750   7.119  11.978  0.8060 -1.0725  1.3850
 7343SOL    HW223471   6.646   7.037  12.050 -0.7537  0.6085  1.1286
 7344SOL     OW23472   4.967   4.948  10.345  0.0106 -0.3770  0.0869
 7344SOL    HW123473   4.932   4.993  10.268  1.5199 -1.0215 -1.0353
 7344SOL    HW223474   5.060   4.937  10.325 -0.0399 -2.7466  0.9308
 7345SOL     OW23475   2.762   0.622   6.555 -0.1887  0.1189 -0.1501
 7345SOL    HW123476   2.735   0.530   6.554 -0.6647  0.2587 -0.9243
 7345SOL    HW223477   2.692   0.668   6.601  0.5687 -0.0380  1.2294
 7346SOL     OW23478   5.088   1.147   9.183  0.5834  0.1808 -0.0401
 7346SOL    HW123479   5.130   1.221   9.139 -0.5178  0.0072 -1.4244
 7346SOL    HW223480   4.997   1.150   9.155  0.1342 -0.7186  1.2280
 7347SOL     OW23481   0.971   7.699   8.619 -0.2839 -0.2598 -0.1568
 7347SOL    HW123482   1.038   7.756   8.657  1.5716 -0.2880 -3.0778
 7347SOL    HW223483   0.904   7.759   8.586  0.0610  0.0372 -0.3262
 7348SOL     OW23484   0.580   7.349  11.544  0.0421  0.5919  0.0715
 7348SOL    HW123485   0.627   7.338  11.627  0.4360 -1.4022 -0.3588
 7348SOL    HW223486   0.488   7.333  11.566 -0.5543  4.3317  0.8816
 7349SOL     OW23487   4.539   2.776  11.512 -0.0756 -0.7493 -0.1517
 7349SOL    HW123488   4.452   2.809  11.533  0.5174  0.3499  0.7202
 7349SOL    HW223489   4.525   2.708  11.446 -1.5715 -0.5376 -0.0676
 7350SOL     OW23490   4.709   6.743   7.963 -0.2882  0.0103 -0.3945
 7350SOL    HW123491   4.791   6.711   7.925  0.6223  0.2930  1.2665
 7350SOL    HW223492   4.736   6.807   8.029 -1.9306  1.6404 -1.2133
 7351SOL     OW23493   2.110   5.124   7.825 -0.3266  0.3414  0.1840
 7351SOL    HW123494   2.158   5.175   7.760  0.1775 -1.7537 -1.1936
 7351SOL    HW223495   2.103   5.182   7.901  1.4500  1.9086 -0.7694
 7352SOL     OW23496   7.526   5.388   9.407  0.1593 -0.1045 -0.0861
 7352SOL    HW123497   7.496   5.380   9.498 -0.1940 -1.8306 -0.3238
 7352SOL    HW223498   7.449   5.366   9.355  0.9614 -1.4122 -0.7552
 7353SOL     OW23499   2.069   1.310   5.816  0.1887  0.1856  0.6644
 7353SOL    HW123500   2.002   1.355   5.868  2.4735  1.6360  2.5431
 7353SOL    HW223501   2.039   1.219   5.813 -1.3978  0.5860  2.2483
 7354SOL     OW23502   7.044   0.499  11.824 -0.4064 -0.1657  0.3834
 7354SOL    HW123503   6.969   0.543  11.865  1.6318  0.3226  4.0480
 7354SOL    HW223504   7.069   0.431  11.887  4.0553  1.7515  1.0691
 7355SOL     OW23505   3.990   4.680   7.411 -0.0051  0.6168 -0.5783
 7355SOL    HW123506   3.904   4.717   7.392 -0.7749  0.6702  2.5120
 7355SOL    HW223507   4.044   4.703   7.335 -2.9110 -0.2756 -3.0890
 7356SOL     OW23508   0.220   5.158   0.765  0.1595  0.2194  0.1543
 7356SOL    HW123509   0.237   5.247   0.731 -2.0580 -0.9345 -4.9425
 7356SOL    HW223510   0.288   5.104   0.724 -0.8177 -0.9300  0.0125
 7357SOL     OW23511   2.854   3.385   7.309 -0.0286 -0.0105  0.2696
 7357SOL    HW123512   2.795   3.319   7.272 -0.2272  0.9734 -1.2573
 7357SOL    HW223513   2.805   3.467   7.305 -0.3212  0.0853  3.4710
 7358SOL     OW23514   0.346   0.029   9.664 -0.0111  0.6873 -0.2808
 7358SOL    HW123515   0.269   0.069   9.704 -1.6362 -2.9405  0.5558
 7358SOL    HW223516   0.416   0.040   9.729 -1.0613  0.0147  0.9820
 7359SOL     OW23517   1.715   5.614   8.168  0.5373  0.8126  0.4278
 7359SOL    HW123518   1.808   5.591   8.161  0.5798  0.8217  0.9575
 7359SOL    HW223519   1.715   5.700   8.208  0.2724  0.4299  1.2753
 7360SOL     OW23520   4.619   1.384   8.891  0.2216  0.3425  0.3122
 7360SOL    HW123521   4.654   1.430   8.967  0.8999 -0.3659  0.4428
 7360SOL    HW223522   4.627   1.446   8.819  0.1577  0.7936  0.6908
 7361SOL     OW23523   7.831   5.853   6.366 -0.6488 -0.0649 -0.1392
 7361SOL    HW123524   7.740   5.878   6.383 -0.9318  0.6318 -2.3479
 7361SOL    HW223525   7.825   5.771   6.317  0.0747 -1.5287  2.0776
 7362SOL     OW23526   3.832   0.949   6.516 -0.1326  0.1512  0.4145
 7362SOL    HW123527   3.909   1.004   6.532  0.8053 -1.5234  2.2448
 7362SOL    HW223528   3.776   1.001   6.459  1.0947  2.5757  1.2835
 7363SOL     OW23529   5.108   3.570   0.512 -0.5998  0.3862 -0.0184
 7363SOL    HW123530   5.036   3.548   0.570 -1.1395 -0.2543 -0.9003
 7363SOL    HW223531   5.186   3.562   0.566 -1.0749 -0.3413  0.5721
 7364SOL     OW23532   1.208   7.312  11.995 -0.0955 -0.5049  0.2048
 7364SOL    HW123533   1.183   7.297  12.086 -2.4047  1.0444 -0.1113
 7364SOL    HW223534   1.229   7.225  11.961 -0.5101 -1.2653  1.8290
 7365SOL     OW23535   2.169   2.259   2.784 -0.2779 -0.3518 -0.9587
 7365SOL    HW123536   2.100   2.212   2.832  0.8629 -0.8132  0.2724
 7365SOL    HW223537   2.131   2.344   2.764 -0.4150  0.3221  1.8214
 7366SOL     OW23538   1.981   0.573   2.392 -0.0346 -0.0661 -0.0226
 7366SOL    HW123539   2.046   0.584   2.323  0.9033 -0.1335  0.8193
 7366SOL    HW223540   2.032   0.580   2.473 -0.9249 -1.0587  0.6459
 7367SOL     OW23541   2.671   7.387   0.835 -0.0524 -0.3470 -0.6125
 7367SOL    HW123542   2.750   7.339   0.861 -0.0570 -0.0929 -0.1119
 7367SOL    HW223543   2.674   7.468   0.886  0.9143  1.0772 -2.8062
 7368SOL     OW23544   4.588   4.859   9.982 -0.0307  0.4511 -0.5428
 7368SOL    HW123545   4.664   4.801   9.991  0.6015  1.2474 -0.6923
 7368SOL    HW223546   4.523   4.821  10.041  0.7622  0.2191  0.2110
 7369SOL     OW23547   2.205   2.906  10.409 -0.4042  0.1562  0.4678
 7369SOL    HW123548   2.209   2.822  10.363  0.2113  0.4898 -0.1140
 7369SOL    HW223549   2.128   2.950  10.372  0.1224  0.4482 -0.3109
 7370SOL     OW23550   2.554   1.889   4.589  0.0180 -0.3511  0.2310
 7370SOL    HW123551   2.625   1.951   4.576 -0.3336  0.4080  1.7444
 7370SOL    HW223552   2.594   1.816   4.637  0.0488 -0.4960 -0.0150
 7371SOL     OW23553   2.446   0.447   0.317 -0.4621  0.1901  0.4260
 7371SOL    HW123554   2.359   0.488   0.323 -0.6474 -0.2258  0.5954
 7371SOL    HW223555   2.448   0.411   0.228 -0.4467  0.2357  0.4078
 7372SOL     OW23556   6.782   6.433   9.494  0.2706  0.1483  0.0145
 7372SOL    HW123557   6.840   6.397   9.427  0.8013  0.8367  0.0866
 7372SOL    HW223558   6.700   6.451   9.448  0.6360  0.6208 -0.4583
 7373SOL     OW23559   2.984   4.697   0.763  0.0543  0.1687  0.4657
 7373SOL    HW123560   2.962   4.748   0.685  1.1674 -4.8383 -3.6778
 7373SOL    HW223561   3.072   4.728   0.787  0.3179  0.8849 -1.2587
 7374SOL     OW23562   5.951   3.076   0.200 -0.4599 -0.4790  0.8046
 7374SOL    HW123563   5.912   2.990   0.210 -0.2597 -0.3834  2.7833
 7374SOL    HW223564   6.034   3.060   0.154 -0.6635 -1.2726  0.7147
 7375SOL     OW23565   0.689   3.833   7.571  0.5101  0.1229  0.2949
 7375SOL    HW123566   0.761   3.791   7.523  1.4562  1.4902  0.4608
 7375SOL    HW223567   0.667   3.910   7.519 -0.0806  0.3190  0.8283
 7376SOL     OW23568   1.228   1.397   8.569 -0.8075 -0.1510  0.0836
 7376SOL    HW123569   1.319   1.375   8.549 -0.7531  0.7770 -0.8278
 7376SOL    HW223570   1.211   1.476   8.517 -3.0083 -1.8724 -2.0783
 7377SOL     OW23571   6.397   5.755   0.025 -0.2870 -0.0333 -1.0541
 7377SOL    HW123572   6.402   5.669  -0.017  1.2852 -1.1921  1.2805
 7377SOL    HW223573   6.304   5.767   0.045 -0.2896 -2.5081  0.9217
 7378SOL     OW23574   5.535   4.929   8.819  0.1282 -0.3961 -0.0457
 7378SOL    HW123575   5.511   4.909   8.910  3.1337 -1.7382  0.5719
 7378SOL    HW223576   5.545   4.843   8.778  1.7791  0.1115 -0.7586
 7379SOL     OW23577   5.902   2.671   9.699 -0.3217 -0.4035  0.3048
 7379SOL    HW123578   5.910   2.625   9.616  1.1214  2.6928 -1.4407
 7379SOL    HW223579   5.836   2.738   9.683 -0.1699  0.1163  1.7367
 7380SOL     OW23580   4.797   5.673   5.819  0.2275  0.0105  0.1445
 7380SOL    HW123581   4.809   5.722   5.737  1.1782  0.7667  0.7143
 7380SOL    HW223582   4.770   5.739   5.883  1.7623 -0.1380  0.9840
 7381SOL     OW23583   3.465   2.446   0.714  0.1142 -0.0859  0.0283
 7381SOL    HW123584   3.505   2.495   0.642  1.4550  0.0239  0.8261
 7381SOL    HW223585   3.373   2.473   0.713  0.0250 -0.3391 -1.8394
 7382SOL     OW23586   7.272   6.212   9.014 -0.2703 -0.4558  0.5314
 7382SOL    HW123587   7.341   6.146   9.026 -0.8814 -1.4671 -1.1802
 7382SOL    HW223588   7.283   6.241   8.924 -3.1830 -1.9888 -0.4377
 7383SOL     OW23589   5.931   3.146  11.330  0.4710  0.1350 -0.8796
 7383SOL    HW123590   6.005   3.095  11.296  0.5203  0.1013 -0.7224
 7383SOL    HW223591   5.878   3.165  11.253  2.1939  2.7778 -1.5602
 7384SOL     OW23592   6.081   1.601   1.751 -0.0253  0.2932  0.2599
 7384SOL    HW123593   6.065   1.673   1.691  0.2068  1.9464  2.0649
 7384SOL    HW223594   6.137   1.540   1.703  1.9207  2.5597 -0.5093
 7385SOL     OW23595   3.203   5.190   3.889  0.0488 -0.5977  0.1816
 7385SOL    HW123596   3.284   5.193   3.837  0.2130  0.3342  0.4886
 7385SOL    HW223597   3.143   5.139   3.835  0.3168  0.0949 -0.8046
 7386SOL     OW23598   6.462   0.554   5.013 -0.7394  0.2023  0.1942
 7386SOL    HW123599   6.479   0.553   4.919 -1.3788  0.1270  0.0781
 7386SOL    HW223600   6.455   0.462   5.038  1.5035  0.1177  0.7119
 7387SOL     OW23601   0.991   2.106   6.898  0.4849 -0.1580  0.1561
 7387SOL    HW123602   0.902   2.081   6.876  0.1591  1.4281 -0.4838
 7387SOL    HW223603   0.985   2.147   6.984  0.0226  2.6699 -1.1299
 7388SOL     OW23604   7.872   4.527   6.729 -0.4081  0.0167 -0.3504
 7388SOL    HW123605   7.827   4.593   6.677  0.3265  0.6115 -0.2506
 7388SOL    HW223606   7.934   4.577   6.782  0.4776 -0.8008 -0.6033
 7389SOL     OW23607   2.099   6.200   0.347 -0.2854 -0.1647 -0.2185
 7389SOL    HW123608   2.181   6.151   0.349 -1.1475 -1.6377  0.9055
 7389SOL    HW223609   2.123   6.288   0.377  1.3037  0.2108 -2.3266
 7390SOL     OW23610   7.545   6.091   9.950  0.6807 -0.2860 -0.1689
 7390SOL    HW123611   7.583   6.126  10.031  1.1796  0.2225 -0.6115
 7390SOL    HW223612   7.464   6.140   9.939  0.8929  0.0508 -0.2685
 7391SOL     OW23613   5.807   7.786   2.214 -0.1254 -0.2339  0.4405
 7391SOL    HW123614   5.724   7.780   2.261  0.6035  0.2504  1.8204
 7391SOL    HW223615   5.788   7.749   2.128 -1.4539 -1.2549  1.1458
 7392SOL     OW23616   1.749   3.880   3.415  0.4244 -0.0828  0.1967
 7392SOL    HW123617   1.841   3.898   3.394  0.5594 -1.6976 -0.7377
 7392SOL    HW223618   1.703   3.887   3.331 -0.1517 -0.1777  0.4991
 7393SOL     OW23619   0.352   0.778  11.040 -0.1306 -0.1786  0.3452
 7393SOL    HW123620   0.425   0.779  10.978 -1.2585 -0.5829 -1.0677
 7393SOL    HW223621   0.314   0.690  11.032 -1.6199  0.4570 -0.0570
 7394SOL     OW23622   6.506   7.355   2.548 -0.3358  0.0060  0.1550
 7394SOL    HW123623   6.589   7.396   2.526  1.0442 -2.4420  0.3920
 7394SOL    HW223624   6.470   7.326   2.464 -0.1614 -0.2834  0.1766
 7395SOL     OW23625   6.103   4.192   0.574  0.1161  0.0237  0.6626
 7395SOL    HW123626   6.092   4.148   0.658  1.1506  0.2172  0.9129
 7395SOL    HW223627   6.084   4.125   0.509  3.6166 -1.4502  0.9837
 7396SOL     OW23628   2.744   7.165   5.182  0.2346  0.2103  0.1242
 7396SOL    HW123629   2.685   7.094   5.158 -1.8865  1.3964  1.4942
 7396SOL    HW223630   2.763   7.151   5.275  0.0552  1.2210  0.3280
 7397SOL     OW23631   5.398   1.997   5.770  0.1696 -0.5398 -0.3026
 7397SOL    HW123632   5.392   1.958   5.857 -0.6773 -1.4276 -0.7532
 7397SOL    HW223633   5.415   2.090   5.788  0.3509 -0.7627  0.7953
 7398SOL     OW23634   2.555   0.863   5.131 -0.1022  0.0203 -0.0603
 7398SOL    HW123635   2.622   0.841   5.195  0.7560 -1.3258 -1.3521
 7398SOL    HW223636   2.478   0.813   5.159  0.3143 -0.6759 -0.1262
 7399SOL     OW23637   7.559   7.841   1.952 -0.2350 -0.2810 -0.1631
 7399SOL    HW123638   7.544   7.760   1.903 -2.6403  0.2521 -0.4445
 7399SOL    HW223639   7.555   7.910   1.886 -0.2073  0.2084  0.3371
 7400SOL     OW23640   7.882   6.018   4.264  0.5628 -0.1526 -0.0403
 7400SOL    HW123641   7.837   6.084   4.318 -1.3670 -0.7112 -0.8770
 7400SOL    HW223642   7.868   6.047   4.174  2.3738 -0.0908 -0.3319
 7401SOL     OW23643   0.821   4.316   8.667  0.7794 -0.3189 -0.0563
 7401SOL    HW123644   0.784   4.228   8.673  0.0152 -0.0127 -0.2585
 7401SOL    HW223645   0.823   4.348   8.757  0.8510 -0.4572 -0.0086
 7402SOL     OW23646   2.218   5.553   3.915 -0.0025  0.4272 -0.6860
 7402SOL    HW123647   2.299   5.516   3.950  0.3417  1.2258 -0.6313
 7402SOL    HW223648   2.151   5.528   3.979  0.4323  0.9247 -0.0323
 7403SOL     OW23649   4.599   5.673   1.128  0.5532 -0.3846  0.0700
 7403SOL    HW123650   4.510   5.654   1.098  0.3756 -0.5616  0.6869
 7403SOL    HW223651   4.606   5.768   1.126 -0.1018 -0.2929  1.2528
 7404SOL     OW23652   4.864   7.580   0.735 -0.5843  0.4390  0.0100
 7404SOL    HW123653   4.846   7.612   0.647 -1.5302 -0.2422 -0.0577
 7404SOL    HW223654   4.787   7.527   0.757  0.3310 -0.6480  0.6493
 7405SOL     OW23655   1.774   5.011   1.680  0.0802  0.3039  0.0274
 7405SOL    HW123656   1.789   4.916   1.678 -0.5828  0.2095 -0.8724
 7405SOL    HW223657   1.690   5.023   1.637  0.2106  1.3196  0.0364
 7406SOL     OW23658   7.028   4.527   7.772 -0.0115 -0.0155 -0.3071
 7406SOL    HW123659   6.969   4.552   7.843 -0.1439 -1.0881 -0.0274
 7406SOL    HW223660   7.105   4.581   7.785 -0.0393 -0.1941  0.6527
 7407SOL     OW23661   3.449   4.217  11.476 -0.2897  0.0573  0.2902
 7407SOL    HW123662   3.389   4.243  11.545  0.6615 -1.5116  1.7991
 7407SOL    HW223663   3.402   4.150  11.427  0.3091 -1.5508  1.7891
 7408SOL     OW23664   4.864   7.867   1.372  0.3578 -0.6991  0.4007
 7408SOL    HW123665   4.918   7.900   1.299  0.1983 -0.7277  0.2701
 7408SOL    HW223666   4.785   7.833   1.330  0.5377 -1.2844  0.5344
 7409SOL     OW23667   3.386   1.447   0.228 -0.2937 -0.2018 -0.0205
 7409SOL    HW123668   3.312   1.487   0.182  0.4589 -0.1226 -1.2111
 7409SOL    HW223669   3.449   1.426   0.158  1.2979  0.7927  1.0448
 7410SOL     OW23670   7.489   5.176  12.389  0.1417 -0.0579  0.3435
 7410SOL    HW123671   7.459   5.121  12.316  1.2104 -0.9750  0.5714
 7410SOL    HW223672   7.439   5.257  12.380 -1.2606 -0.9510 -0.1766
 7411SOL     OW23673   1.967   7.913  11.026  0.1884 -0.6441  0.3902
 7411SOL    HW123674   2.015   7.964  11.091 -0.8892 -0.1952  0.8724
 7411SOL    HW223675   2.030   7.897  10.956  0.7004  0.9735  0.4337
 7412SOL     OW23676   3.760   7.564   8.924  0.1493  0.5564 -0.3455
 7412SOL    HW123677   3.840   7.544   8.972 -0.3540 -2.8914 -0.7062
 7412SOL    HW223678   3.782   7.545   8.832 -0.6553  1.0770 -0.6622
 7413SOL     OW23679   7.852   3.751   5.156  0.3893 -0.0130 -0.2530
 7413SOL    HW123680   7.935   3.792   5.179  0.9904 -0.2724 -1.8611
 7413SOL    HW223681   7.797   3.824   5.127  1.1451 -0.1570 -2.2075
 7414SOL     OW23682   2.343   3.437   0.668 -0.0976  0.2128 -0.4868
 7414SOL    HW123683   2.260   3.478   0.691 -0.3025 -0.6505  0.3945
 7414SOL    HW223684   2.382   3.414   0.752  0.1241 -1.1248 -0.9304
 7415SOL     OW23685   6.096   6.500  10.825 -0.0459  0.2262 -0.5935
 7415SOL    HW123686   6.107   6.578  10.771  0.2026  0.1574 -0.6429
 7415SOL    HW223687   6.185   6.478  10.853 -0.1836  0.3255 -0.0659
 7416SOL     OW23688   0.785   5.740   0.952  0.0572 -0.1620 -0.2230
 7416SOL    HW123689   0.861   5.733   0.895 -0.7317 -0.4581 -1.2544
 7416SOL    HW223690   0.769   5.834   0.960 -1.6095 -0.1169 -2.9567
 7417SOL     OW23691   6.590   0.360   5.554  0.6014  0.5168  0.2933
 7417SOL    HW123692   6.500   0.327   5.548  0.0695  1.8222  0.5790
 7417SOL    HW223693   6.601   0.380   5.647  0.6944  1.6184  0.0594
 7418SOL     OW23694   5.855   0.631   5.169  0.0058 -0.7559 -0.2880
 7418SOL    HW123695   5.805   0.703   5.207 -1.1075 -0.6392 -1.8589
 7418SOL    HW223696   5.905   0.672   5.098  2.4220 -0.8698  1.2719
 7419SOL     OW23697   0.282   0.874   9.787  0.1452  0.3394 -0.1135
 7419SOL    HW123698   0.254   0.782   9.789  1.0518  0.0702  1.0247
 7419SOL    HW223699   0.351   0.880   9.853  0.9290  1.5803 -1.0068
 7420SOL     OW23700   0.848   4.695   7.565  0.0802  0.1590 -0.1087
 7420SOL    HW123701   0.889   4.612   7.541  0.8467  0.8205 -1.2190
 7420SOL    HW223702   0.885   4.716   7.651 -0.1635 -0.6753  0.2015
 7421SOL     OW23703   0.797   7.084   2.222  0.2400 -0.3726  0.3461
 7421SOL    HW123704   0.820   6.999   2.260  0.0453  0.4179  2.3192
 7421SOL    HW223705   0.877   7.136   2.230  0.7952 -0.7435 -2.1195
 7422SOL     OW23706   4.234   3.540  11.210  0.3521  0.2601 -0.7801
 7422SOL    HW123707   4.199   3.475  11.271 -0.0155 -0.0081 -1.2712
 7422SOL    HW223708   4.170   3.611  11.212  0.2548  0.1772 -0.9824
 7423SOL     OW23709   2.595   0.849   0.489  0.5032  0.3947 -0.1002
 7423SOL    HW123710   2.595   0.755   0.508  0.1937  0.0426 -1.7342
 7423SOL    HW223711   2.647   0.887   0.560 -0.3810 -0.8533  1.2726
 7424SOL     OW23712   4.775   2.609   3.614 -0.5556  0.1451 -0.3355
 7424SOL    HW123713   4.809   2.521   3.628 -0.9535  0.2521  1.5055
 7424SOL    HW223714   4.787   2.624   3.520 -1.1947 -2.1602 -0.8591
 7425SOL     OW23715   6.344   5.981   8.350  0.3393 -0.0472 -0.3363
 7425SOL    HW123716   6.416   6.037   8.379  0.8269  0.3894 -2.2593
 7425SOL    HW223717   6.354   5.976   8.255 -1.0981 -1.4882 -0.4546
 7426SOL     OW23718   3.187   4.640   6.020  0.4166 -0.2536 -0.3876
 7426SOL    HW123719   3.144   4.568   5.974  1.9204 -1.3283 -0.1944
 7426SOL    HW223720   3.279   4.612   6.028  1.1935  1.9664 -0.8476
 7427SOL     OW23721   6.779   3.788   7.286 -0.5345 -0.0560  0.5677
 7427SOL    HW123722   6.818   3.870   7.255 -0.7512  0.5044  1.7013
 7427SOL    HW223723   6.838   3.720   7.255  0.8949  0.7047  1.5036
 7428SOL     OW23724   3.365   2.261  12.289 -0.4357  0.1156 -0.4259
 7428SOL    HW123725   3.352   2.178  12.243 -0.9597  0.2592 -0.5516
 7428SOL    HW223726   3.451   2.292  12.260 -0.2633 -0.3521 -0.4226
 7429SOL     OW23727   2.147   0.727   3.534 -0.1670 -0.6323  0.3924
 7429SOL    HW123728   2.217   0.674   3.495  0.2656  0.7172 -0.7784
 7429SOL    HW223729   2.153   0.709   3.628  1.0798 -1.3490  0.2043
 7430SOL     OW23730   6.595   0.711  10.947 -0.2039  0.6358  0.4801
 7430SOL    HW123731   6.663   0.741  11.009  1.0979 -0.4212 -0.3859
 7430SOL    HW223732   6.609   0.616  10.940 -1.3970  0.4915 -0.1880
 7431SOL     OW23733   1.408   5.637   4.953  0.4915  0.0704  0.2668
 7431SOL    HW123734   1.346   5.704   4.921 -0.4336 -0.8141  0.1360
 7431SOL    HW223735   1.362   5.596   5.026  1.6516  0.5284  1.2688
 7432SOL     OW23736   5.499   3.401  10.830  0.1817  0.3823  0.1964
 7432SOL    HW123737   5.431   3.454  10.873  0.2836  0.0462  0.7902
 7432SOL    HW223738   5.536   3.348  10.901  0.4610 -0.0795 -0.2872
 7433SOL     OW23739   1.704   7.937   0.230 -0.5838  0.0389 -0.5135
 7433SOL    HW123740   1.760   7.892   0.293 -0.9491  0.3160  0.0099
 7433SOL    HW223741   1.759   7.945   0.152 -0.4445 -1.1267 -0.5487
 7434SOL     OW23742   6.847   6.490   7.275 -0.0824 -0.2006  0.4344
 7434SOL    HW123743   6.913   6.492   7.205 -0.5995  2.5822 -0.1005
 7434SOL    HW223744   6.872   6.415   7.329  2.6653 -0.1215 -0.5515
 7435SOL     OW23745   0.123   0.381   9.997 -0.4979  0.1044  0.0636
 7435SOL    HW123746   0.130   0.350  10.087  1.8893  1.1179  0.2921
 7435SOL    HW223747   0.036   0.420   9.992 -1.1571 -1.0751  1.5337
 7436SOL     OW23748   7.876   7.630   3.471 -0.1127 -0.3930 -0.4775
 7436SOL    HW123749   7.826   7.687   3.529 -0.5111 -0.0951 -1.1102
 7436SOL    HW223750   7.958   7.615   3.518  0.7924  2.1828 -1.0386
 7437SOL     OW23751   0.745   0.474   1.110 -0.0533 -0.4727 -0.4175
 7437SOL    HW123752   0.809   0.543   1.125  0.7026 -1.3636  0.6261
 7437SOL    HW223753   0.712   0.453   1.197  0.4953 -2.1162 -0.5760
 7438SOL     OW23754   7.269   5.898   7.069  0.2522  0.2576 -0.2049
 7438SOL    HW123755   7.204   5.843   7.113  1.8400 -0.8898  0.8536
 7438SOL    HW223756   7.218   5.960   7.017 -1.6370 -1.2597 -0.2545
 7439SOL     OW23757   6.792   5.233   6.223  0.3652  0.0137 -0.2945
 7439SOL    HW123758   6.764   5.313   6.179 -0.6049  0.4885  1.1117
 7439SOL    HW223759   6.853   5.191   6.161  0.5981  1.6304 -1.2110
 7440SOL     OW23760   1.019   3.434   1.290  0.0327 -0.3754 -0.7443
 7440SOL    HW123761   1.081   3.427   1.363  0.6640 -0.0768 -1.2299
 7440SOL    HW223762   1.075   3.452   1.214 -0.4959 -1.8855 -1.5251
 7441SOL     OW23763   1.891   5.312   3.149  0.2415  0.1674  0.0065
 7441SOL    HW123764   1.830   5.275   3.212  0.6942  0.1455  0.4301
 7441SOL    HW223765   1.839   5.321   3.068 -0.4365  0.5232  0.4710
 7442SOL     OW23766   3.121   1.070   3.171 -0.1414 -0.8258  0.5731
 7442SOL    HW123767   3.136   1.002   3.237  0.6677 -0.1382  1.1186
 7442SOL    HW223768   3.099   1.148   3.221  3.6522  0.6147  0.3826
 7443SOL     OW23769   1.513   2.628  12.093 -0.0465  0.3238 -0.3697
 7443SOL    HW123770   1.486   2.629  12.185  2.6212 -0.9994  0.5376
 7443SOL    HW223771   1.562   2.709  12.082  0.6850 -0.0998 -0.2587
 7444SOL     OW23772   7.377   2.215   6.560 -0.5357  0.0790  0.0627
 7444SOL    HW123773   7.414   2.273   6.494  0.4866 -3.0766 -2.4402
 7444SOL    HW223774   7.453   2.171   6.599 -1.3059 -0.7792  0.6496
 7445SOL     OW23775   3.853   7.413  11.099  0.2551 -0.0881  0.4884
 7445SOL    HW123776   3.830   7.506  11.092 -1.2266 -0.3022  1.9228
 7445SOL    HW223777   3.858   7.396  11.193 -1.1281 -1.8053  0.3084
 7446SOL     OW23778   4.484   5.799   8.703 -0.5547  0.3692 -0.2994
 7446SOL    HW123779   4.552   5.766   8.644 -0.0742  3.3843 -1.6628
 7446SOL    HW223780   4.402   5.784   8.655 -0.6873 -1.4092  0.4271
 7447SOL     OW23781   3.336   6.807  10.300 -0.0992  0.2490 -0.5892
 7447SOL    HW123782   3.340   6.875  10.234  2.7204  3.1955  2.2432
 7447SOL    HW223783   3.288   6.847  10.373  0.0795 -1.4490  0.5166
 7448SOL     OW23784   7.788   4.609   0.116 -0.4300 -0.3577  0.1236
 7448SOL    HW123785   7.855   4.648   0.171  0.3444 -1.0672 -0.2868
 7448SOL    HW223786   7.800   4.651   0.030 -1.3159  0.3940  0.3521
 7449SOL     OW23787   3.613   4.595   0.995 -0.3005  0.1092 -0.2982
 7449SOL    HW123788   3.596   4.689   0.990 -1.2616 -0.1012 -1.2800
 7449SOL    HW223789   3.697   4.589   1.042  0.9813  1.5719 -2.2242
 7450SOL     OW23790   0.093   3.250   7.935  0.6282 -0.1081 -0.1046
 7450SOL    HW123791   0.134   3.296   8.008  0.7263  1.0814 -0.8877
 7450SOL    HW223792   0.035   3.186   7.976 -0.2448  1.3613  1.0445
 7451SOL     OW23793   1.169   5.671   5.792 -0.2013  0.0756 -0.3891
 7451SOL    HW123794   1.253   5.711   5.771  0.3590 -1.1860 -0.6533
 7451SOL    HW223795   1.191   5.582   5.822 -1.3534  0.1312  0.7183
 7452SOL     OW23796   2.190   7.457   7.391 -0.4462  0.3564 -0.1877
 7452SOL    HW123797   2.104   7.443   7.431 -1.1829  1.5922 -1.2609
 7452SOL    HW223798   2.214   7.546   7.416 -0.2207  0.5939 -1.2161
 7453SOL     OW23799   1.845   3.485   9.545  0.0327  0.1591  0.6809
 7453SOL    HW123800   1.819   3.571   9.512  0.9447  0.5996  1.0640
 7453SOL    HW223801   1.935   3.498   9.576  0.9554 -1.4122 -1.1017
 7454SOL     OW23802   1.033   0.629   5.233 -0.3980 -0.2607  0.2556
 7454SOL    HW123803   1.120   0.597   5.254 -0.8067 -1.3625  0.3652
 7454SOL    HW223804   1.045   0.685   5.157  0.2453 -1.4170 -0.5262
 7455SOL     OW23805   7.885   7.962   0.525 -0.0962  0.0994  0.0147
 7455SOL    HW123806   7.792   7.976   0.545 -0.0338  0.8965 -0.2205
 7455SOL    HW223807   7.887   7.879   0.476 -0.7709  0.4266 -0.5859
 7456SOL     OW23808   2.921   2.925   9.906  0.2392 -0.7986 -0.3231
 7456SOL    HW123809   2.978   2.928   9.828  1.4903  1.3450  0.5838
 7456SOL    HW223810   2.980   2.902   9.978 -0.4267 -0.4347  0.3545
 7457SOL     OW23811   5.469   7.488  11.405  0.2505 -0.6113 -0.5400
 7457SOL    HW123812   5.461   7.419  11.340  2.8776 -1.3789 -0.1599
 7457SOL    HW223813   5.468   7.443  11.489  3.1335 -0.4589 -0.3169
 7458SOL     OW23814   0.396   0.374  11.330  0.1600  0.2289  0.1678
 7458SOL    HW123815   0.301   0.376  11.338 -0.3153  2.6214 -3.5723
 7458SOL    HW223816   0.428   0.394  11.418 -2.5806 -2.5955  2.0240
 7459SOL     OW23817   6.937   2.740  11.509  0.0250  0.0656 -0.1240
 7459SOL    HW123818   6.922   2.834  11.495 -0.3284 -0.3169 -2.8505
 7459SOL    HW223819   6.853   2.699  11.490  0.6010 -0.9285 -0.6332
 7460SOL     OW23820   7.561   4.504  10.363  0.0452 -0.2543  0.5144
 7460SOL    HW123821   7.555   4.518  10.269 -0.6121 -3.4583 -0.0409
 7460SOL    HW223822   7.471   4.513  10.394 -0.0599 -1.0990  0.4767
 7461SOL     OW23823   6.241   3.695  10.167  0.2047  0.0095  0.3256
 7461SOL    HW123824   6.265   3.734  10.083  3.0500 -2.6891 -0.3329
 7461SOL    HW223825   6.290   3.744  10.232 -1.1333  1.3894  0.3446
 7462SOL     OW23826   4.199   2.648  11.930 -0.1885 -0.8621 -0.8877
 7462SOL    HW123827   4.106   2.667  11.919 -0.0530 -0.1766 -0.8854
 7462SOL    HW223828   4.213   2.568  11.880 -0.8703 -1.2180 -0.5212
 7463SOL     OW23829   1.605   0.050   4.662  0.1860  0.1475 -0.1298
 7463SOL    HW123830   1.522   0.045   4.710 -0.1932  1.2801 -0.6359
 7463SOL    HW223831   1.589  -0.002   4.583  0.7535 -1.5736  0.8252
 7464SOL     OW23832   7.931   7.036   1.376 -0.2268  0.3577 -0.2927
 7464SOL    HW123833   7.890   7.090   1.443  1.0014  1.3172 -0.2733
 7464SOL    HW223834   7.877   6.956   1.373 -2.7349  1.9722 -1.0877
 7465SOL     OW23835   5.553   2.990  10.879  0.0129 -0.7397 -0.5032
 7465SOL    HW123836   5.486   3.024  10.820 -2.4089 -1.3645  1.6826
 7465SOL    HW223837   5.596   3.068  10.914 -0.4988 -0.2633 -0.9255
 7466SOL     OW23838   5.175   2.293   6.366  0.0593  0.5597  0.1080
 7466SOL    HW123839   5.126   2.257   6.292 -0.3653  2.8086 -0.8081
 7466SOL    HW223840   5.264   2.302   6.334 -0.2966  2.3537 -0.5398
 7467SOL     OW23841   0.328   6.309   1.879 -0.6320 -0.0022  0.6000
 7467SOL    HW123842   0.285   6.284   1.797 -0.1604 -0.5140  0.5066
 7467SOL    HW223843   0.308   6.238   1.940 -0.2264 -0.0588  0.6661
 7468SOL     OW23844   1.470   6.310   7.080 -0.6031  0.2200 -0.1824
 7468SOL    HW123845   1.399   6.371   7.098 -1.5098 -1.3927  2.1352
 7468SOL    HW223846   1.430   6.223   7.086  0.9923 -0.6991 -1.7054
 7469SOL     OW23847   2.123   4.378   9.630  0.1112 -0.0208  0.3806
 7469SOL    HW123848   2.148   4.429   9.553  0.3238  0.7542  0.9371
 7469SOL    HW223849   2.126   4.442   9.702 -0.2856 -0.6773  0.9902
 7470SOL     OW23850   1.995   4.964  12.322 -0.3790 -0.2307  0.0971
 7470SOL    HW123851   1.967   4.934  12.409  0.7157 -1.9486 -0.1122
 7470SOL    HW223852   2.086   4.990  12.334  0.4954 -2.5749 -0.9537
 7471SOL     OW23853   1.353   4.056   5.869  0.2678  0.7009 -0.4765
 7471SOL    HW123854   1.270   4.010   5.858  0.3092  0.2935  0.7510
 7471SOL    HW223855   1.416   3.986   5.887  0.4156  1.1800  0.9945
 7472SOL     OW23856   1.378   2.560   3.303 -0.0134  0.3230  0.1861
 7472SOL    HW123857   1.434   2.508   3.361 -1.7200 -1.3349  0.4322
 7472SOL    HW223858   1.316   2.603   3.361 -0.6917 -0.0211 -0.2784
 7473SOL     OW23859   1.246   0.739  10.939 -0.0623 -0.0094 -0.4107
 7473SOL    HW123860   1.180   0.802  10.910  1.7201  2.1783 -0.0464
 7473SOL    HW223861   1.206   0.694  11.013 -0.5773  2.4664  0.9134
 7474SOL     OW23862   0.754   6.593   5.207  0.6700  0.0504  0.1724
 7474SOL    HW123863   0.730   6.524   5.145  1.2367 -0.8959  0.9610
 7474SOL    HW223864   0.673   6.642   5.221 -0.2067 -1.4865  0.8297
 7475SOL     OW23865   2.908   5.956   8.425 -0.7752  0.2214  0.0183
 7475SOL    HW123866   2.923   5.957   8.520 -1.7007  1.6768  0.1827
 7475SOL    HW223867   2.969   5.890   8.392 -1.3975 -1.3004  1.7631
 7476SOL     OW23868   3.639   5.821   4.604 -0.0373 -0.2709 -0.3406
 7476SOL    HW123869   3.599   5.738   4.631 -1.2521 -0.6154 -2.9140
 7476SOL    HW223870   3.582   5.888   4.641  0.1847 -0.5956  0.6192
 7477SOL     OW23871   3.076   7.377   4.215  0.0039 -0.2795 -0.4061
 7477SOL    HW123872   3.132   7.418   4.280  1.1896 -0.7149 -1.1255
 7477SOL    HW223873   3.077   7.284   4.237 -1.3800 -0.1647  0.2540
 7478SOL     OW23874   1.701   7.817  11.322 -0.1534  0.3605 -0.8201
 7478SOL    HW123875   1.783   7.767  11.324 -0.6990 -0.5798  1.3776
 7478SOL    HW223876   1.722   7.898  11.368 -0.5332 -0.0826  0.1660
 7479SOL     OW23877   2.960   7.049   8.072 -0.2461  0.0656  0.6114
 7479SOL    HW123878   3.051   7.079   8.067 -0.2367  0.1570  1.3283
 7479SOL    HW223879   2.960   6.983   8.141 -0.5555 -0.5651  0.0276
 7480SOL     OW23880   6.018   4.165   9.538  0.1031  0.4380  0.3081
 7480SOL    HW123881   6.062   4.142   9.620 -1.5838  0.1446  1.1729
 7480SOL    HW223882   6.035   4.091   9.480 -2.2747 -1.4977  1.8706
 7481SOL     OW23883   7.004   7.758   9.629 -0.3740 -0.1173 -0.1667
 7481SOL    HW123884   7.030   7.828   9.568  0.3126  0.8397  1.1567
 7481SOL    HW223885   7.039   7.678   9.590  1.0794  0.6289 -0.4705
 7482SOL     OW23886   7.781   7.241   8.414 -0.1688 -0.5390 -0.6095
 7482SOL    HW123887   7.765   7.174   8.481  0.9292 -0.0013  0.2249
 7482SOL    HW223888   7.876   7.252   8.414 -0.3585  1.3493 -0.4026
 7483SOL     OW23889   1.971   6.335  11.433  0.7040  0.0079 -0.1292
 7483SOL    HW123890   1.906   6.387  11.386 -2.3594 -2.0045  1.5104
 7483SOL    HW223891   2.000   6.269  11.370  1.3009  1.0081 -0.9189
 7484SOL     OW23892   1.773   1.821  10.330 -0.1834 -0.2136 -0.1553
 7484SOL    HW123893   1.867   1.840  10.327 -0.0404 -0.3775  1.8157
 7484SOL    HW223894   1.768   1.725  10.328 -0.2001 -0.2532  0.8817
 7485SOL     OW23895   4.700   4.854   1.497 -0.2285 -0.0667  0.0005
 7485SOL    HW123896   4.749   4.835   1.576 -0.8210 -0.1943  0.3450
 7485SOL    HW223897   4.608   4.840   1.521 -0.4112 -0.1863 -0.7275
 7486SOL     OW23898   7.701   2.395   4.583 -0.0660 -0.0446 -0.3236
 7486SOL    HW123899   7.724   2.383   4.675  0.0190 -0.8801 -0.4450
 7486SOL    HW223900   7.785   2.411   4.539 -0.1771  1.0812 -0.1650
 7487SOL     OW23901   4.768   6.740   6.934 -0.0614 -0.8902 -0.0891
 7487SOL    HW123902   4.755   6.768   7.024  1.1851 -2.5593  0.6644
 7487SOL    HW223903   4.863   6.740   6.922 -0.2042 -0.7319 -1.3892
 7488SOL     OW23904   6.076   2.661   5.477 -0.5018 -0.0286 -0.1234
 7488SOL    HW123905   6.104   2.621   5.395 -1.0708  0.0066 -0.3432
 7488SOL    HW223906   5.995   2.615   5.500 -0.5585  0.2308  0.2114
 7489SOL     OW23907   4.636   1.642   0.683 -0.6315 -0.2589  0.4899
 7489SOL    HW123908   4.696   1.685   0.622 -0.2010 -1.6601 -0.1155
 7489SOL    HW223909   4.569   1.602   0.627 -0.5572 -1.0673  0.9569
 7490SOL     OW23910   5.717   7.310   0.571  0.2305  0.6750  0.0125
 7490SOL    HW123911   5.791   7.349   0.617  0.0789 -2.8075  3.7155
 7490SOL    HW223912   5.750   7.292   0.483  3.7830 -0.5127  1.4166
 7491SOL     OW23913   2.549   2.781  11.188  0.7685  0.1574 -0.0985
 7491SOL    HW123914   2.468   2.751  11.228  0.3088  0.4630 -0.7755
 7491SOL    HW223915   2.613   2.712  11.208  0.2805 -0.2026  0.2344
 7492SOL     OW23916   1.417   2.022   6.166  0.1222  0.3604 -0.2765
 7492SOL    HW123917   1.336   1.977   6.140  0.8628 -1.7459  0.8011
 7492SOL    HW223918   1.402   2.113   6.142 -3.5437  0.5659  1.9683
 7493SOL     OW23919   0.175   1.076   0.615 -0.1227 -0.0173  0.2420
 7493SOL    HW123920   0.235   1.028   0.672  0.2947 -1.7774 -1.6009
 7493SOL    HW223921   0.098   1.019   0.608 -1.5161  1.5851  1.4524
 7494SOL     OW23922   0.974   3.141   2.085  0.0615 -0.9405  0.4297
 7494SOL    HW123923   0.917   3.063   2.082  0.8177 -1.4847 -0.5431
 7494SOL    HW223924   1.062   3.106   2.069  0.1699  0.3317 -2.1978
 7495SOL     OW23925   5.703   2.649   3.582  0.3925  0.2878  0.2947
 7495SOL    HW123926   5.753   2.690   3.652 -0.1593 -0.0219  0.8820
 7495SOL    HW223927   5.767   2.628   3.515  1.2174 -1.0218  1.4525
 7496SOL     OW23928   0.133   1.962   8.849  0.2963 -0.2218  0.1671
 7496SOL    HW123929   0.180   1.925   8.924  0.7762  0.2818  0.1220
 7496SOL    HW223930   0.129   1.891   8.785 -0.3594 -0.7482  0.7640
 7497SOL     OW23931   6.330   1.288   3.208  0.5565 -0.1185 -0.9864
 7497SOL    HW123932   6.410   1.255   3.168  1.1762 -0.7653  0.6610
 7497SOL    HW223933   6.352   1.375   3.239  0.9212 -0.6145  0.2077
 7498SOL     OW23934   2.343   4.926   9.524 -0.4020  0.3359 -0.5236
 7498SOL    HW123935   2.279   4.864   9.559  0.1309 -0.0638 -0.2298
 7498SOL    HW223936   2.330   5.005   9.576  1.2605 -0.6553  1.6002
 7499SOL     OW23937   1.494   1.331   1.136  0.3069 -0.3049  0.4057
 7499SOL    HW123938   1.499   1.237   1.119  0.2539 -0.1441 -0.5450
 7499SOL    HW223939   1.422   1.341   1.198 -0.3168 -0.8042 -0.2221
 7500SOL     OW23940   4.286   2.562   5.589  0.0455 -0.3692  0.0710
 7500SOL    HW123941   4.348   2.575   5.518  0.1449  0.7425  0.3483
 7500SOL    HW223942   4.241   2.646   5.598 -0.5192 -0.7385  0.7932
 7501SOL     OW23943   1.068   0.932  12.081 -0.3091  0.0886 -0.4470
 7501SOL    HW123944   1.124   0.909  12.007 -0.1492  0.4682 -0.4461
 7501SOL    HW223945   1.012   1.001  12.047 -0.2216  0.2774 -0.2079
 7502SOL     OW23946   1.907   6.896   8.612  0.0027 -0.4380  0.1107
 7502SOL    HW123947   1.834   6.838   8.635 -0.1489 -0.3103 -0.0517
 7502SOL    HW223948   1.983   6.856   8.654 -0.0467 -0.9325 -0.2563
 7503SOL     OW23949   3.317   6.951   5.866  0.0560 -0.6871  0.8951
 7503SOL    HW123950   3.283   7.003   5.939  0.4295  1.3656 -0.2924
 7503SOL    HW223951   3.407   6.930   5.891 -0.2066 -1.0678  1.5381
 7504SOL     OW23952   0.580   2.845   3.599 -0.1361  0.0270 -0.2624
 7504SOL    HW123953   0.638   2.847   3.675  1.1111 -2.1381 -1.0757
 7504SOL    HW223954   0.500   2.803   3.630  0.0914 -0.1935  0.0247
 7505SOL     OW23955   5.043   6.981   3.139 -0.1678  0.0694  0.0083
 7505SOL    HW123956   5.033   7.005   3.231  0.2602  2.2303 -0.4706
 7505SOL    HW223957   4.955   6.989   3.102  0.0515  1.4456 -0.2512
 7506SOL     OW23958   6.571   5.862  11.467 -0.6740  0.3359 -0.4389
 7506SOL    HW123959   6.519   5.783  11.478 -0.6266  0.3851  0.1653
 7506SOL    HW223960   6.660   5.831  11.453 -0.4240  0.2951  1.1102
 7507SOL     OW23961   5.092   6.122   5.922 -0.2186 -0.0760  0.2312
 7507SOL    HW123962   5.095   6.093   5.830  0.7268  0.4305  0.0909
 7507SOL    HW223963   5.058   6.047   5.970 -0.1943 -0.5410 -0.4682
 7508SOL     OW23964   3.143   7.705   3.224  0.4072  0.2024 -0.0037
 7508SOL    HW123965   3.054   7.740   3.219  0.1570 -0.4653 -0.4398
 7508SOL    HW223966   3.169   7.718   3.315  0.0304  0.7963  0.0248
 7509SOL     OW23967   1.474   0.782   9.029  0.0593 -0.0181 -0.4614
 7509SOL    HW123968   1.570   0.773   9.029  0.1410 -0.2798  2.3847
 7509SOL    HW223969   1.458   0.862   9.079 -1.1942 -0.5542  0.0427
 7510SOL     OW23970   5.521   3.815   2.142 -0.0047  0.8248  0.2955
 7510SOL    HW123971   5.529   3.809   2.046  1.0119 -0.1697  0.4108
 7510SOL    HW223972   5.542   3.906   2.162 -0.1189  1.0189 -0.4239
 7511SOL     OW23973   6.822   0.515   0.608 -0.4159  0.7113  0.5068
 7511SOL    HW123974   6.818   0.462   0.528  1.0527  1.4749 -0.1053
 7511SOL    HW223975   6.912   0.506   0.638 -1.1799 -0.4257  2.7297
 7512SOL     OW23976   4.966   2.434   7.011 -0.7897 -0.2341  0.3932
 7512SOL    HW123977   4.971   2.340   7.031  3.3674 -0.1993  0.2474
 7512SOL    HW223978   4.995   2.441   6.921  1.0446  1.3090  1.0406
 7513SOL     OW23979   7.210   3.812   3.486 -0.0933 -0.2097  0.7821
 7513SOL    HW123980   7.291   3.809   3.537 -0.1443  0.4649  0.9077
 7513SOL    HW223981   7.238   3.821   3.395  0.0249  3.5715  1.0260
 7514SOL     OW23982   7.151   0.540   6.532  0.2882  0.4388  0.1189
 7514SOL    HW123983   7.109   0.626   6.538  1.9092  1.4654 -2.0531
 7514SOL    HW223984   7.160   0.512   6.623 -2.9237  1.1581  0.8030
 7515SOL     OW23985   6.117   6.356  12.074  0.0650  0.2345 -0.1745
 7515SOL    HW123986   6.176   6.352  12.148  0.5807  1.3441 -0.5066
 7515SOL    HW223987   6.035   6.390  12.110  0.2794  0.6661 -0.0951
 7516SOL     OW23988   3.381   3.489   1.135 -0.0215 -0.0752  0.4962
 7516SOL    HW123989   3.415   3.429   1.070  0.4231 -0.4636  1.0792
 7516SOL    HW223990   3.324   3.436   1.190 -0.8637  0.3780  0.0711
 7517SOL     OW23991   0.195   3.554  10.477 -0.2496  0.1888 -0.2672
 7517SOL    HW123992   0.201   3.470  10.432 -1.9254 -0.2522  0.2881
 7517SOL    HW223993   0.180   3.618  10.408  1.6074  0.1584 -0.7575
 7518SOL     OW23994   5.889   6.738   8.321  0.5227  0.2706 -0.4529
 7518SOL    HW123995   5.816   6.679   8.301  2.0669 -0.9000 -3.1751
 7518SOL    HW223996   5.939   6.691   8.388  0.9148 -0.8548 -1.5032
 7519SOL     OW23997   4.630   7.818   6.202  0.9738 -0.1022 -0.4728
 7519SOL    HW123998   4.587   7.832   6.117  0.9557 -0.2095 -0.4811
 7519SOL    HW223999   4.722   7.836   6.184  0.6851  2.1148  0.0076
 7520SOL     OW24000   3.858   2.810  10.091 -0.4286 -0.2059 -0.3579
 7520SOL    HW124001   3.871   2.796  10.185 -3.9896 -1.1920  0.1223
 7520SOL    HW224002   3.883   2.727  10.050  2.1407  0.5564 -0.5292
 7521SOL     OW24003   5.224   5.891   1.525 -0.0332 -0.0670  0.0573
 7521SOL    HW124004   5.156   5.891   1.456  0.2119 -0.6669 -0.1870
 7521SOL    HW224005   5.295   5.943   1.487 -1.1620  2.4736  1.1507
 7522SOL     OW24006   7.255   5.072   7.235 -0.2728  0.1927 -0.0366
 7522SOL    HW124007   7.263   5.074   7.139  0.1546  0.4434  0.0004
 7522SOL    HW224008   7.344   5.055   7.266 -0.2787  0.8042  0.3318
 7523SOL     OW24009   0.495   4.228   9.708  0.3379  0.1396  0.2813
 7523SOL    HW124010   0.580   4.187   9.725  0.5370  0.6173  0.4513
 7523SOL    HW224011   0.450   4.225   9.793  0.1045 -0.2826  0.1488
 7524SOL     OW24012   0.990   7.504   2.327 -0.1711  0.3663  0.4462
 7524SOL    HW124013   0.898   7.489   2.304  0.5218  0.3119 -2.8191
 7524SOL    HW224014   0.987   7.552   2.410 -2.9874 -2.4013  2.1404
 7525SOL     OW24015   1.700   7.870  10.663 -0.1002  0.1304  0.5180
 7525SOL    HW124016   1.763   7.939  10.640 -0.5887  0.7718  1.0555
 7525SOL    HW224017   1.657   7.903  10.742 -0.7387 -0.5385  0.4547
 7526SOL     OW24018   0.031   0.802  12.292 -0.7220  0.3985 -0.7302
 7526SOL    HW124019  -0.053   0.845  12.275 -1.4492  0.2086  1.8946
 7526SOL    HW224020   0.020   0.762  12.379  1.5993 -0.8843 -0.9483
 7527SOL     OW24021   6.143   2.318   6.967  0.1969 -0.3849  0.5337
 7527SOL    HW124022   6.050   2.337   6.960 -0.1725 -0.9501  2.9983
 7527SOL    HW224023   6.180   2.397   7.008  0.6121 -0.5621  0.5026
 7528SOL     OW24024   4.778   6.089  10.545 -0.4453  0.0074 -0.6859
 7528SOL    HW124025   4.749   6.012  10.496 -0.1178 -2.6815  2.9784
 7528SOL    HW224026   4.702   6.116  10.596  0.4925 -0.4894  1.0587
 7529SOL     OW24027   2.035   5.605  11.497 -0.0851 -0.2449 -0.4345
 7529SOL    HW124028   1.974   5.605  11.571 -0.5556  1.3572 -0.7919
 7529SOL    HW224029   1.984   5.639  11.424  1.0858  0.6390 -0.8637
 7530SOL     OW24030   0.602   7.017   3.681  0.2462  0.0060  0.2305
 7530SOL    HW124031   0.620   7.084   3.747 -0.4959 -0.2204  0.6825
 7530SOL    HW224032   0.629   6.935   3.723  2.0840  0.1005 -0.6919
 7531SOL     OW24033   1.496   6.101   3.378 -0.1886  0.1091  0.6788
 7531SOL    HW124034   1.440   6.121   3.302 -1.4939 -1.1592  1.2468
 7531SOL    HW224035   1.491   6.005   3.386 -0.7276  0.2723  2.8334
 7532SOL     OW24036   1.804   3.857  10.527 -0.1886 -0.1818 -0.2960
 7532SOL    HW124037   1.833   3.914  10.456 -2.1463  2.0812  0.5605
 7532SOL    HW224038   1.880   3.851  10.586  0.7357 -0.2538 -1.4613
 7533SOL     OW24039   4.048   0.954   3.060  0.0188 -0.5011 -0.4650
 7533SOL    HW124040   4.125   1.009   3.045 -0.8469  0.4162 -1.7690
 7533SOL    HW224041   4.083   0.866   3.071  1.2533 -0.1018 -1.0641
 7534SOL     OW24042   5.559   0.484   4.289 -0.7039  0.6508 -0.2358
 7534SOL    HW124043   5.649   0.515   4.277 -1.1096  1.3487 -1.6412
 7534SOL    HW224044   5.563   0.432   4.370  0.6255  1.9333  0.5891
 7535SOL     OW24045   6.266   7.726   1.277  0.9616 -0.0725  0.5768
 7535SOL    HW124046   6.343   7.671   1.261  0.9595  0.5753 -2.1928
 7535SOL    HW224047   6.302   7.808   1.309  1.4095  0.0162 -0.1216
 7536SOL     OW24048   7.920   3.489   7.905 -0.4241 -0.2975 -0.3408
 7536SOL    HW124049   7.943   3.399   7.926 -0.1109 -0.0334  0.4790
 7536SOL    HW224050   7.977   3.512   7.832  1.1819 -0.0189  0.9320
 7537SOL     OW24051   4.739   0.646   4.446  0.3169 -0.0601 -0.0460
 7537SOL    HW124052   4.821   0.623   4.402 -0.3426 -4.5108  0.5916
 7537SOL    HW224053   4.755   0.624   4.538 -0.9770  0.9811  0.4549
 7538SOL     OW24054   4.275   0.307   2.549  0.2237  0.0465 -0.4962
 7538SOL    HW124055   4.211   0.286   2.480  2.6528  0.3276 -3.0102
 7538SOL    HW224056   4.305   0.221   2.580 -0.1293 -0.0918 -0.5309
 7539SOL     OW24057   1.632   4.535   5.185 -0.1252 -0.1043 -0.1396
 7539SOL    HW124058   1.565   4.489   5.135 -0.8933 -0.3117  1.0278
 7539SOL    HW224059   1.708   4.537   5.127 -1.1948  0.3375 -1.5741
 7540SOL     OW24060   1.790   6.123   2.299 -0.2614  0.2009 -0.5935
 7540SOL    HW124061   1.851   6.098   2.369 -0.2065 -0.9253 -1.0229
 7540SOL    HW224062   1.835   6.098   2.218  1.1522  4.4380 -1.3654
 7541SOL     OW24063   3.241   0.479   7.720  0.5786  0.6258  0.2387
 7541SOL    HW124064   3.243   0.438   7.806  0.3162 -1.1819 -0.5554
 7541SOL    HW224065   3.178   0.426   7.670 -0.1455  2.3247 -0.7454
 7542SOL     OW24066   4.463   1.966  12.254  0.3281  0.4076  0.2475
 7542SOL    HW124067   4.502   1.886  12.218 -0.4549  0.2878 -0.3633
 7542SOL    HW224068   4.406   1.935  12.324 -1.8823  0.1539 -1.5720
 7543SOL     OW24069   5.529   7.007   6.856  0.4778  0.1437 -0.6879
 7543SOL    HW124070   5.590   7.051   6.916  1.4646  0.7431 -2.0799
 7543SOL    HW224071   5.532   6.915   6.882  1.8363  0.1992 -0.5807
 7544SOL     OW24072   4.218   5.551   8.687  0.0038  0.3510 -0.0281
 7544SOL    HW124073   4.154   5.585   8.749 -1.5980  1.2326 -2.0627
 7544SOL    HW224074   4.228   5.620   8.621  1.4649 -0.6192 -0.9020
 7545SOL     OW24075   0.234   2.266   0.263 -0.1987  0.4270 -0.4682
 7545SOL    HW124076   0.272   2.236   0.345 -1.8423 -2.3610 -0.6162
 7545SOL    HW224077   0.306   2.311   0.219  1.2146  0.4478  1.7063
 7546SOL     OW24078   7.129   4.330   1.835  0.1620 -0.0325 -0.5023
 7546SOL    HW124079   7.173   4.388   1.898 -1.5563  2.0143 -1.0567
 7546SOL    HW224080   7.182   4.336   1.756  0.1804  0.5698 -0.4541
 7547SOL     OW24081   6.432   5.386   5.325  0.0146  0.6268 -0.1746
 7547SOL    HW124082   6.388   5.428   5.251 -0.3594 -3.2730 -2.4736
 7547SOL    HW224083   6.373   5.314   5.349  2.3320 -1.0644  0.7476
 7548SOL     OW24084   1.817   6.372   2.694  0.4914 -0.4281 -0.3306
 7548SOL    HW124085   1.866   6.308   2.746  2.7364  1.0094 -0.5551
 7548SOL    HW224086   1.757   6.413   2.757 -0.8998 -2.5632 -0.1551
 7549SOL     OW24087   7.905   3.795  10.534  0.5798 -0.1804 -0.3486
 7549SOL    HW124088   7.917   3.731  10.464 -0.3275  1.7552 -2.3898
 7549SOL    HW224089   7.992   3.834  10.546  0.4487  0.5256 -1.5217
 7550SOL     OW24090   6.549   4.226  11.076  0.5520  0.1591 -0.2668
 7550SOL    HW124091   6.643   4.231  11.054  0.2094  0.0783 -1.8999
 7550SOL    HW224092   6.541   4.143  11.123  1.4005  0.4896  0.4996
 7551SOL     OW24093   3.095   7.805   8.685  0.4295  0.3634  0.0038
 7551SOL    HW124094   3.117   7.751   8.609  0.3580  1.0130 -0.4857
 7551SOL    HW224095   3.003   7.828   8.673  0.3690  0.3312  0.3796
 7552SOL     OW24096   7.141   2.701   3.794  0.4062  0.8869  0.2943
 7552SOL    HW124097   7.058   2.738   3.824 -1.4768 -1.1086 -2.0651
 7552SOL    HW224098   7.191   2.688   3.874 -2.0090  1.1061  1.9572
 7553SOL     OW24099   3.030   5.801   5.214 -0.1669  0.3324  0.1915
 7553SOL    HW124100   2.985   5.855   5.279 -0.9668  2.0284 -1.6836
 7553SOL    HW224101   3.116   5.783   5.253 -0.7006  1.1152  1.7901
 7554SOL     OW24102   4.565   3.805  11.373 -0.3302  0.4398  0.4092
 7554SOL    HW124103   4.546   3.812  11.279 -0.5226 -0.5566  0.3656
 7554SOL    HW224104   4.641   3.861  11.386 -0.3918  0.7035 -0.3115
 7555SOL     OW24105   2.949   2.250   6.426 -0.2679 -0.2208 -0.4251
 7555SOL    HW124106   3.020   2.303   6.462 -0.5647  0.5541 -0.9638
 7555SOL    HW224107   2.985   2.210   6.347  0.2264 -1.5279  0.4316
 7556SOL     OW24108   4.975   3.432   7.550  0.2123  0.1058 -0.3998
 7556SOL    HW124109   5.050   3.383   7.583 -0.5029 -1.9820 -1.7075
 7556SOL    HW224110   5.003   3.466   7.465  0.1468  0.5599 -0.2437
 7557SOL     OW24111   7.775   6.831   2.121  0.3782  0.3675 -0.6060
 7557SOL    HW124112   7.721   6.910   2.123 -0.7065 -0.3686  0.5781
 7557SOL    HW224113   7.769   6.801   2.030 -1.9604 -0.1492 -0.3394
 7558SOL     OW24114   5.133   2.348   4.741  0.3156  0.3466 -0.0061
 7558SOL    HW124115   5.127   2.258   4.772  0.6227  0.1701 -0.4393
 7558SOL    HW224116   5.114   2.341   4.647  0.6394  0.6946 -0.0949
 7559SOL     OW24117   5.416   6.268   9.201  0.3700  0.6605 -0.0115
 7559SOL    HW124118   5.496   6.319   9.191  1.7095 -1.2585  0.4199
 7559SOL    HW224119   5.441   6.179   9.180 -1.5808 -0.0755  0.5316
 7560SOL     OW24120   6.769   1.481   1.180  0.3889 -0.3355 -0.1684
 7560SOL    HW124121   6.725   1.451   1.100  1.3780 -0.1879 -0.7772
 7560SOL    HW224122   6.714   1.448   1.251 -0.0984 -1.1165 -0.8875
 7561SOL     OW24123   5.368   6.393   1.608  0.0107  0.1861 -0.0881
 7561SOL    HW124124   5.355   6.467   1.667  2.6723  0.7117 -0.0535
 7561SOL    HW224125   5.306   6.326   1.638 -0.2276  1.2384  1.8774
 7562SOL     OW24126   1.906   2.354   0.714  0.4007 -0.3966  0.2639
 7562SOL    HW124127   2.001   2.363   0.720  0.3403  0.5240 -0.0015
 7562SOL    HW224128   1.874   2.444   0.714 -0.4624 -0.6996  0.1846
 7563SOL     OW24129   1.672   6.230   4.708 -0.2452 -0.8739 -0.1432
 7563SOL    HW124130   1.725   6.165   4.662  0.3390  0.1106 -0.8995
 7563SOL    HW224131   1.667   6.197   4.798 -1.1958 -2.7021 -0.8239
 7564SOL     OW24132   5.408   5.131   1.801  0.2011 -0.2129  0.2336
 7564SOL    HW124133   5.491   5.092   1.774  0.6321 -0.4070  1.7431
 7564SOL    HW224134   5.430   5.182   1.879 -0.9809  0.2713  0.2705
 7565SOL     OW24135   4.460   6.543   5.692  0.2242  0.4489 -0.4405
 7565SOL    HW124136   4.546   6.578   5.712  0.1482  0.2114  0.3234
 7565SOL    HW224137   4.404   6.573   5.763 -0.6351  1.6805 -1.5862
 7566SOL     OW24138   1.141   3.917   3.350  0.3159  0.5933 -0.8722
 7566SOL    HW124139   1.071   3.969   3.389 -0.7516 -1.5120  0.1903
 7566SOL    HW224140   1.175   3.971   3.279 -0.8111  2.6341  0.0725
 7567SOL     OW24141   4.121   0.794   7.095  0.0312 -0.2702  0.0462
 7567SOL    HW124142   4.047   0.759   7.144 -1.6658  2.2014 -0.5612
 7567SOL    HW224143   4.178   0.834   7.161 -0.7426  0.4656  0.2762
 7568SOL     OW24144   4.313   5.098   4.532  0.0088  0.1062  0.4036
 7568SOL    HW124145   4.358   5.171   4.490 -0.0899 -0.5344 -0.8866
 7568SOL    HW224146   4.381   5.031   4.542 -0.5688 -0.8328 -1.4722
 7569SOL     OW24147   2.305   6.194  11.659 -0.0065 -0.0563 -0.2501
 7569SOL    HW124148   2.300   6.184  11.754  1.1859  1.0382 -0.0486
 7569SOL    HW224149   2.245   6.267  11.639 -0.9780 -0.8911 -0.4763
 7570SOL     OW24150   2.712   0.826   8.458 -0.1037 -0.3651  0.1022
 7570SOL    HW124151   2.637   0.856   8.407 -0.0659  0.0943  0.3109
 7570SOL    HW224152   2.696   0.733   8.473  0.0973 -0.6092 -1.1164
 7571SOL     OW24153   3.900   1.835   8.455 -0.2553  0.3773 -0.2792
 7571SOL    HW124154   3.863   1.922   8.438 -1.0922 -0.1993 -1.6427
 7571SOL    HW224155   3.988   1.851   8.487  0.1565  1.7190 -1.9561
 7572SOL     OW24156   1.615   6.700   6.742 -0.4361 -0.2956  0.1632
 7572SOL    HW124157   1.658   6.701   6.828 -0.7532  0.6522  0.3310
 7572SOL    HW224158   1.672   6.752   6.686 -1.0644  0.5302  0.2530
 7573SOL     OW24159   3.893   1.987   8.134 -0.3552  0.4591 -0.1500
 7573SOL    HW124160   3.946   1.908   8.119  1.4205  1.5215  0.2629
 7573SOL    HW224161   3.839   1.994   8.055  0.1144 -0.6825 -0.6017
 7574SOL     OW24162   7.709   3.197   5.701  0.4154  0.4510  0.1060
 7574SOL    HW124163   7.776   3.134   5.726 -0.3682 -0.3159  0.3544
 7574SOL    HW224164   7.626   3.151   5.716 -0.1936  1.6338  0.5665
 7575SOL     OW24165   4.111   1.690   7.469 -0.2635 -0.1674 -0.2415
 7575SOL    HW124166   4.059   1.713   7.546 -2.0495 -1.3945 -1.0298
 7575SOL    HW224167   4.104   1.595   7.462  1.3316 -0.2715 -0.9383
 7576SOL     OW24168   1.273   7.187   9.113 -0.5890  0.8318  0.7108
 7576SOL    HW124169   1.199   7.191   9.172 -0.9377 -0.3931  0.3861
 7576SOL    HW224170   1.321   7.269   9.128 -1.4530  1.1826  1.6287
 7577SOL     OW24171   7.505   2.863   0.031  0.2479  0.4025 -0.0235
 7577SOL    HW124172   7.572   2.834   0.093  0.5468 -1.7467 -1.2851
 7577SOL    HW224173   7.425   2.818   0.059  0.2750 -0.2037 -0.8731
 7578SOL     OW24174   1.625   7.608   6.302  0.1869  0.3653 -0.5095
 7578SOL    HW124175   1.543   7.561   6.314  1.1740 -0.9273  1.9925
 7578SOL    HW224176   1.623   7.637   6.211 -2.2040 -1.2059 -1.0584
 7579SOL     OW24177   0.222   5.062   7.357  0.2320  0.1716 -0.8356
 7579SOL    HW124178   0.223   5.131   7.292 -0.2084  1.4060  0.4151
 7579SOL    HW224179   0.294   5.004   7.332 -0.6675 -0.0583 -3.0659
 7580SOL     OW24180   7.492   6.418   6.671  0.0208  0.1695  0.5686
 7580SOL    HW124181   7.443   6.500   6.660 -1.1365 -0.5226  0.4537
 7580SOL    HW224182   7.572   6.445   6.716 -0.7121  1.2526  1.2829
 7581SOL     OW24183   7.826   2.334  10.035  0.0972 -0.0937 -0.0741
 7581SOL    HW124184   7.730   2.336  10.034  0.0927  1.2109  0.4678
 7581SOL    HW224185   7.851   2.415  10.079  1.4513 -0.6947  0.3089
 7582SOL     OW24186   4.307   7.808  10.495 -0.1017 -0.3470 -0.3382
 7582SOL    HW124187   4.325   7.845  10.408  0.5840  0.5285  0.1659
 7582SOL    HW224188   4.390   7.768  10.521 -0.6487 -1.6885 -0.5879
 7583SOL     OW24189   7.559   4.845  11.151  0.4442  0.1956 -0.2770
 7583SOL    HW124190   7.563   4.927  11.101 -0.7349  0.4860  0.0883
 7583SOL    HW224191   7.487   4.797  11.112  0.7220 -0.3994 -0.0659
 7584SOL     OW24192   1.419   2.827   0.924  0.1015 -0.3036  0.7162
 7584SOL    HW124193   1.428   2.868   1.010 -3.1619 -0.4426  1.2646
 7584SOL    HW224194   1.414   2.733   0.942  0.1829 -0.3932  0.2839
 7585SOL     OW24195   5.289   6.317   7.528 -0.0820 -0.0793 -0.0745
 7585SOL    HW124196   5.250   6.273   7.452 -1.1139 -0.0746  0.4360
 7585SOL    HW224197   5.363   6.262   7.553 -1.4062 -1.6318  0.6172
 7586SOL     OW24198   4.255   1.061   9.828  0.3141  0.0421  0.3383
 7586SOL    HW124199   4.314   1.134   9.808  1.7820 -0.5927  2.0802
 7586SOL    HW224200   4.265   1.046   9.922 -1.3836 -1.1952  0.3728
 7587SOL     OW24201   0.276   2.192   0.946  0.4145  0.8071  0.1693
 7587SOL    HW124202   0.220   2.115   0.949  0.9385  0.3485 -1.1241
 7587SOL    HW224203   0.265   2.233   1.032  0.4387 -0.9320  1.0540
 7588SOL     OW24204   6.116   5.461   6.549  0.6341  0.6647  0.6438
 7588SOL    HW124205   6.168   5.479   6.471  0.5696  1.1747  0.7175
 7588SOL    HW224206   6.069   5.380   6.528 -0.2962  1.4241 -0.3051
 7589SOL     OW24207   3.643   6.076   7.851 -0.3691  0.6663  0.5993
 7589SOL    HW124208   3.641   5.995   7.903 -0.7378  0.7507  0.7224
 7589SOL    HW224209   3.721   6.122   7.881 -0.2636  0.4430  0.6661
 7590SOL     OW24210   4.063   5.174   1.115  0.2060 -0.1309  0.1093
 7590SOL    HW124211   3.999   5.221   1.168  1.2287  0.5366  0.8013
 7590SOL    HW224212   4.066   5.086   1.153 -1.1843 -0.5624 -0.7251
 7591SOL     OW24213   5.773   1.703  11.223  0.0679 -0.0786 -0.0088
 7591SOL    HW124214   5.774   1.703  11.319  0.9457  0.2535 -0.0029
 7591SOL    HW224215   5.864   1.684  11.199 -0.2164 -0.4828 -0.7769
 7592SOL     OW24216   4.583   1.242   3.833  0.4332  0.2413  0.4485
 7592SOL    HW124217   4.572   1.196   3.916  1.4017 -0.8029  0.0210
 7592SOL    HW224218   4.511   1.305   3.831  0.7324  0.7225  2.3509
 7593SOL     OW24219   1.515   7.601   0.551  0.4541  0.3405  0.1525
 7593SOL    HW124220   1.586   7.574   0.492  1.3597 -1.8207  2.0693
 7593SOL    HW224221   1.506   7.695   0.536  0.4854 -0.0945 -3.4950
 7594SOL     OW24222   5.387   2.035   9.209 -0.0718  0.3129  0.1248
 7594SOL    HW124223   5.293   2.046   9.226 -0.1065  1.4007 -0.7130
 7594SOL    HW224224   5.417   1.978   9.280 -1.6048 -1.1204 -0.3160
 7595SOL     OW24225   0.063   5.954   6.866 -0.0308  0.2447 -0.0567
 7595SOL    HW124226  -0.016   5.903   6.885  0.3695  1.0115  5.2283
 7595SOL    HW224227   0.135   5.895   6.884  0.7912 -0.0956 -3.7270
 7596SOL     OW24228   4.855   3.116   7.384  0.5031  0.1105 -0.5657
 7596SOL    HW124229   4.854   3.079   7.295 -0.9503 -0.5151 -0.3114
 7596SOL    HW224230   4.930   3.074   7.426  1.5496  0.8351 -1.6453
 7597SOL     OW24231   6.922   5.555   5.640 -0.7144  0.1372 -0.4848
 7597SOL    HW124232   7.005   5.536   5.596 -0.6776 -1.6042  0.2499
 7597SOL    HW224233   6.940   5.541   5.732 -1.9599 -0.8361 -0.3713
 7598SOL     OW24234   6.597   2.657   8.947  0.4401 -1.0415  0.3551
 7598SOL    HW124235   6.635   2.701   8.871 -1.9345 -0.1827 -0.4328
 7598SOL    HW224236   6.590   2.725   9.014  0.5115 -1.2458  0.5715
 7599SOL     OW24237   3.019   1.062   6.504 -0.0552  0.6754 -0.0722
 7599SOL    HW124238   3.029   1.129   6.572  2.1825 -1.5254  1.9823
 7599SOL    HW224239   2.934   1.022   6.523  0.5251  0.1071  1.5037
 7600SOL     OW24240   3.548   5.902   6.610  0.0658  0.1046  0.5268
 7600SOL    HW124241   3.572   5.889   6.702 -0.5895 -1.2477  0.5360
 7600SOL    HW224242   3.584   5.987   6.588 -0.7446  0.9910  2.3739
 7601SOL     OW24243   0.780   2.011   2.197 -0.5591 -0.5355  0.0891
 7601SOL    HW124244   0.721   1.950   2.241 -0.5477 -1.3312 -0.9354
 7601SOL    HW224245   0.867   1.989   2.230 -0.8682  1.2597  2.3047
 7602SOL     OW24246   2.559   6.727   2.328 -0.2918 -0.6603  0.2923
 7602SOL    HW124247   2.611   6.764   2.400 -1.1799  0.3800  0.4185
 7602SOL    HW224248   2.488   6.680   2.372 -0.7652 -0.1261  0.1043
 7603SOL     OW24249   1.299   1.215   9.132 -0.2618  0.1645 -0.3333
 7603SOL    HW124250   1.304   1.279   9.203  0.0410  0.3893 -0.5535
 7603SOL    HW224251   1.291   1.268   9.053  0.3203 -0.0629 -0.5456
 7604SOL     OW24252   2.946   5.336   0.033 -0.0083 -0.2154 -0.2508
 7604SOL    HW124253   2.925   5.255  -0.014 -3.0837 -0.2253  0.9130
 7604SOL    HW224254   3.002   5.309   0.105  0.7229 -0.9350 -1.0648
 7605SOL     OW24255   7.458   6.538   9.876  0.3277  0.1246 -0.1266
 7605SOL    HW124256   7.446   6.445   9.861 -0.7058  0.2313  0.0230
 7605SOL    HW224257   7.384   6.565   9.930 -0.2690  1.3606 -1.4925
 7606SOL     OW24258   4.635   4.969   6.345  0.4108  0.0460 -0.7185
 7606SOL    HW124259   4.580   4.926   6.280  1.8415  0.7119 -2.4320
 7606SOL    HW224260   4.670   4.897   6.398  0.0518 -0.6032 -1.3451
 7607SOL     OW24261   1.715   1.813   3.074  0.4712 -0.8778  0.2103
 7607SOL    HW124262   1.799   1.810   3.121  0.3590 -1.5917  0.3785
 7607SOL    HW224263   1.727   1.882   3.008  0.3451  0.7586  1.8062
 7608SOL     OW24264   1.009   6.465   3.260  0.2532 -0.5486  0.0271
 7608SOL    HW124265   1.018   6.401   3.189  0.0264  0.9901 -1.4463
 7608SOL    HW224266   1.052   6.544   3.227  0.5455  0.0766  1.8068
 7609SOL     OW24267   4.024   2.259   4.770  0.1576  0.0920  0.3937
 7609SOL    HW124268   4.068   2.249   4.686 -0.4106  0.8358 -0.0053
 7609SOL    HW224269   4.095   2.273   4.833  0.7801 -2.8159  0.4767
 7610SOL     OW24270   0.141   4.767   0.499 -0.0151  0.4800  0.0285
 7610SOL    HW124271   0.086   4.781   0.576  3.4438  0.9261  2.6738
 7610SOL    HW224272   0.190   4.688   0.519  2.9198  2.0680 -0.4009
 7611SOL     OW24273   5.156   2.139   7.536 -0.0002  0.1759  0.2816
 7611SOL    HW124274   5.249   2.151   7.555 -0.3248  1.0352  1.4659
 7611SOL    HW224275   5.114   2.141   7.622 -1.1350  0.0482 -0.2569
 7612SOL     OW24276   5.820   6.549   2.834  0.1176 -0.1468 -0.3665
 7612SOL    HW124277   5.875   6.526   2.909  1.7082  1.7163 -0.8800
 7612SOL    HW224278   5.812   6.644   2.839 -1.0563 -0.1522 -1.6888
 7613SOL     OW24279   2.904   0.310   7.998 -0.5673 -0.4540 -0.0343
 7613SOL    HW124280   2.926   0.384   8.055  1.0121 -1.4689  0.7432
 7613SOL    HW224281   2.971   0.244   8.017  0.4050 -0.6694 -3.4363
 7614SOL     OW24282   4.549   1.225  12.079  0.4466 -0.7456  0.0669
 7614SOL    HW124283   4.545   1.147  12.134 -1.1075 -1.9875 -1.6938
 7614SOL    HW224284   4.461   1.234  12.042  1.2836  0.2902 -1.8413
 7615SOL     OW24285   6.562   0.159   6.843  0.0777  0.3611  0.4680
 7615SOL    HW124286   6.508   0.209   6.782  0.3294  0.0388 -0.0256
 7615SOL    HW224287   6.614   0.101   6.787 -0.2068 -0.4504  1.0279
 7616SOL     OW24288   2.919   1.816   6.680  0.2940 -0.7361 -0.2095
 7616SOL    HW124289   2.998   1.824   6.627 -0.0915  1.0900 -0.5852
 7616SOL    HW224290   2.948   1.836   6.769  0.0620  1.2182 -0.5422
 7617SOL     OW24291   0.724   5.099   6.933 -0.0461  0.2794  0.4396
 7617SOL    HW124292   0.728   5.044   6.855  1.5273  1.3497 -0.3107
 7617SOL    HW224293   0.789   5.061   6.993 -0.0133  0.4598  0.5205
 7618SOL     OW24294   2.752   6.809  10.016  0.6443  0.1277  0.9370
 7618SOL    HW124295   2.774   6.832   9.925  0.8156  0.5745  1.0884
 7618SOL    HW224296   2.805   6.732  10.034 -0.4895 -0.8663  0.1762
 7619SOL     OW24297   0.048   4.549  11.473 -0.4819 -0.1405  0.3008
 7619SOL    HW124298   0.140   4.554  11.500 -0.4153 -0.4625  0.1400
 7619SOL    HW224299   0.037   4.620  11.411  0.7733 -2.5689 -2.9657
 7620SOL     OW24300   2.878   5.860  10.593  0.0862 -0.1535 -0.5537
 7620SOL    HW124301   2.850   5.786  10.647  0.9415 -0.8625 -1.0563
 7620SOL    HW224302   2.859   5.833  10.504  1.5311 -0.2980 -0.8387
 7621SOL     OW24303   3.492   4.647   8.200  0.6494 -0.6296 -0.3502
 7621SOL    HW124304   3.458   4.716   8.143  0.7257 -0.3830 -0.0972
 7621SOL    HW224305   3.585   4.668   8.210  0.8741 -1.2841 -1.0155
 7622SOL     OW24306   0.704   7.515   1.988  0.0106  0.1325 -0.1436
 7622SOL    HW124307   0.642   7.458   2.034 -0.0552  0.1086 -0.2600
 7622SOL    HW224308   0.663   7.531   1.903 -0.2924  0.8942  0.1314
 7623SOL     OW24309   0.949   3.189   9.317  0.1951  0.6707 -0.2467
 7623SOL    HW124310   0.938   3.095   9.334 -0.9099  0.8850  0.3105
 7623SOL    HW224311   0.922   3.200   9.226  0.1507  0.4723 -0.2586
 7624SOL     OW24312   5.188   3.926   5.865  0.8307 -0.1764  0.2233
 7624SOL    HW124313   5.247   4.000   5.879  1.1537 -0.2737 -0.5530
 7624SOL    HW224314   5.187   3.914   5.770  1.3451 -1.6073  0.3692
 7625SOL     OW24315   7.131   0.122   6.344 -0.3389  0.0054  0.4354
 7625SOL    HW124316   7.063   0.179   6.380  1.1671  1.8902  0.4694
 7625SOL    HW224317   7.189   0.104   6.418  0.9283  1.1036 -0.2577
 7626SOL     OW24318   2.820   0.493   1.813  0.2625  0.3775  1.1144
 7626SOL    HW124319   2.833   0.443   1.732 -1.2718  1.7708 -0.0706
 7626SOL    HW224320   2.871   0.573   1.799 -0.6754  0.9860  1.1633
 7627SOL     OW24321   3.100   4.480  11.335 -0.0574  0.2265 -0.4554
 7627SOL    HW124322   3.144   4.441  11.260  0.1528 -1.6774  0.5987
 7627SOL    HW224323   3.036   4.540  11.297  0.5411 -0.1372 -2.1202
 7628SOL     OW24324   1.873   3.226  10.161  0.4405  0.6084  0.5674
 7628SOL    HW124325   1.802   3.163  10.171  1.0678  0.1337  2.3676
 7628SOL    HW224326   1.935   3.182  10.102 -0.8407  1.1607 -1.2861
 7629SOL     OW24327   6.800   5.532   6.635  0.0529  1.0184  0.1304
 7629SOL    HW124328   6.807   5.441   6.605 -0.4413  0.5790  1.2785
 7629SOL    HW224329   6.881   5.548   6.683 -0.5662  0.5998  1.3684
 7630SOL     OW24330   7.855   6.294  12.382 -0.0714  0.4619 -0.2147
 7630SOL    HW124331   7.778   6.273  12.434  0.8114  0.2129  1.0113
 7630SOL    HW224332   7.919   6.329  12.444  1.1119 -0.0902 -1.0686
 7631SOL     OW24333   2.303   3.003  12.133 -0.2089  0.1779 -0.2880
 7631SOL    HW124334   2.272   2.920  12.098  2.6575 -0.8454 -0.6513
 7631SOL    HW224335   2.332   3.052  12.056 -0.0602  0.7047  0.0943
 7632SOL     OW24336   3.741   0.835   7.062 -0.2431  0.1821 -0.2818
 7632SOL    HW124337   3.828   0.860   7.033 -0.8558  1.2626 -1.2635
 7632SOL    HW224338   3.703   0.915   7.098 -0.9723 -0.1736 -0.2292
 7633SOL     OW24339   4.793   1.324   1.008  0.2521  0.0235 -0.0382
 7633SOL    HW124340   4.852   1.257   0.974 -0.0986  0.0781 -0.7604
 7633SOL    HW224341   4.839   1.406   0.991  0.6589 -0.0125  0.8020
 7634SOL     OW24342   4.366   1.507   2.977 -0.2900  0.1873  0.4453
 7634SOL    HW124343   4.361   1.583   2.919  1.8672 -0.5851 -0.9050
 7634SOL    HW224344   4.446   1.461   2.949 -1.1143 -2.1805  1.6821
 7635SOL     OW24345   7.925   5.995   1.626  0.0317 -0.2965  0.1552
 7635SOL    HW124346   7.947   5.960   1.712 -1.2335 -1.1213  0.1733
 7635SOL    HW224347   8.006   5.988   1.575  0.2763 -1.6382  0.6977
 7636SOL     OW24348   4.737   2.317   2.501  0.6126 -0.0623  0.1609
 7636SOL    HW124349   4.806   2.355   2.447  0.8051  0.2851  0.6409
 7636SOL    HW224350   4.743   2.364   2.584 -1.5952  1.5090 -0.4651
 7637SOL     OW24351   7.230   3.508   2.211 -0.6062  0.4080 -0.0621
 7637SOL    HW124352   7.190   3.424   2.191  0.2607 -0.0686  0.1432
 7637SOL    HW224353   7.323   3.497   2.190 -0.1230  0.6967  1.7045
 7638SOL     OW24354   2.200   3.830   5.858  0.1150  0.1179 -0.1537
 7638SOL    HW124355   2.251   3.849   5.780  0.5727  1.8100  0.5217
 7638SOL    HW224356   2.261   3.841   5.931 -1.0212  1.6030  0.6307
 7639SOL     OW24357   0.589   2.907  11.178  0.0940  0.2751 -0.4386
 7639SOL    HW124358   0.503   2.908  11.135  0.3462  0.9539 -0.9294
 7639SOL    HW224359   0.576   2.957  11.259 -0.9018 -2.6210  1.3640
 7640SOL     OW24360   5.556   2.249  10.033  0.2901 -0.3246 -0.5228
 7640SOL    HW124361   5.575   2.335  10.070 -1.8853 -0.3226  0.7641
 7640SOL    HW224362   5.582   2.187  10.101  1.9048 -0.7489 -1.4692
 7641SOL     OW24363   2.247   3.975  10.744 -0.0715  0.0057 -0.1875
 7641SOL    HW124364   2.284   3.992  10.831  0.7960 -1.9475 -0.1170
 7641SOL    HW224365   2.292   4.036  10.686  3.2819 -2.1244 -0.0766
 7642SOL     OW24366   6.592   7.426   8.119  0.4718 -0.0984  0.3471
 7642SOL    HW124367   6.603   7.359   8.051  0.3043  0.1384  0.0868
 7642SOL    HW224368   6.679   7.434   8.158  0.2453 -1.2932  1.1590
 7643SOL     OW24369   6.403   5.935   2.393 -0.0919  0.1081 -0.2219
 7643SOL    HW124370   6.309   5.948   2.402 -0.0249  1.2721 -0.9699
 7643SOL    HW224371   6.422   5.958   2.302  0.9395  0.0739 -0.0312
 7644SOL     OW24372   2.747   5.381   9.579  0.7352  0.1563  0.2645
 7644SOL    HW124373   2.812   5.450   9.565 -0.3337  1.0583 -0.4554
 7644SOL    HW224374   2.725   5.352   9.490 -0.2709  0.2937  0.4632
 7645SOL     OW24375   0.760   0.105   4.467 -0.3195 -0.2270 -0.3423
 7645SOL    HW124376   0.821   0.174   4.493 -0.5035  0.4082 -1.5684
 7645SOL    HW224377   0.683   0.119   4.523 -0.3606  0.5797 -0.5854
 7646SOL     OW24378   1.014   0.557  10.931  0.3228  0.2426 -0.1390
 7646SOL    HW124379   0.918   0.555  10.936  0.3360 -0.6480  0.0430
 7646SOL    HW224380   1.034   0.549  10.838  0.2227 -0.8201 -0.0798
 7647SOL     OW24381   7.456   7.539  12.381  0.2774 -0.2069  0.4582
 7647SOL    HW124382   7.378   7.504  12.337  0.5126  0.3992 -0.4713
 7647SOL    HW224383   7.434   7.630  12.399  0.8124 -0.0049  0.1020
 7648SOL     OW24384   5.747   0.015   5.515 -0.2878 -0.1303 -0.0007
 7648SOL    HW124385   5.807  -0.056   5.536 -0.3208 -0.6639 -1.5620
 7648SOL    HW224386   5.775   0.088   5.570 -0.6204 -1.4941  2.0862
 7649SOL     OW24387   3.088   5.451   6.758 -0.2512  0.1741 -0.0931
 7649SOL    HW124388   3.121   5.446   6.668 -2.0321 -0.1592 -0.7757
 7649SOL    HW224389   3.148   5.396   6.809 -0.0504 -0.8415 -1.3700
 7650SOL     OW24390   5.863   7.781  12.028 -0.1868  0.1154  1.0270
 7650SOL    HW124391   5.950   7.770  12.067  1.1993  0.8010 -1.6598
 7650SOL    HW224392   5.826   7.692  12.027  1.4889 -0.6196  0.0798
 7651SOL     OW24393   5.397   1.605   2.177 -0.3053 -0.1753 -0.6942
 7651SOL    HW124394   5.431   1.544   2.112 -0.2667 -0.6234 -0.2607
 7651SOL    HW224395   5.407   1.692   2.138  0.8821 -0.3355 -0.7657
 7652SOL     OW24396   6.177   7.119   5.515 -0.1160  0.1686  0.5420
 7652SOL    HW124397   6.128   7.075   5.445  1.7010 -0.0630 -0.6418
 7652SOL    HW224398   6.185   7.054   5.584 -0.3538 -0.2203  0.2085
 7653SOL     OW24399   2.617   4.979   9.432  0.4379 -0.1611  0.0786
 7653SOL    HW124400   2.594   4.978   9.339 -0.7963 -3.9974  0.2554
 7653SOL    HW224401   2.551   4.923   9.474  1.3655  0.8653  3.1892
 7654SOL     OW24402   2.566   3.609   3.225 -0.1100  0.0235  0.1922
 7654SOL    HW124403   2.490   3.608   3.282  0.7301  1.5677  1.4284
 7654SOL    HW224404   2.547   3.678   3.161  0.7988  1.4740  1.4066
 7655SOL     OW24405   3.171   4.360  10.266  0.2377  0.7257  0.0707
 7655SOL    HW124406   3.077   4.377  10.270  0.0399 -0.2436 -0.1234
 7655SOL    HW224407   3.182   4.304  10.189  0.9061  0.4312  0.3651
 7656SOL     OW24408   4.142   5.539   7.221 -0.1497 -0.7201 -0.2390
 7656SOL    HW124409   4.201   5.598   7.173 -0.7643 -0.1807 -0.3470
 7656SOL    HW224410   4.057   5.552   7.180 -1.2627  1.5604  2.4422
 7657SOL     OW24411   6.065   5.686   7.277 -0.4420 -0.2125  0.5017
 7657SOL    HW124412   6.078   5.709   7.369  2.0393 -1.3751  0.5314
 7657SOL    HW224413   6.105   5.599   7.268 -0.9282 -0.2736 -1.6168
 7658SOL     OW24414   7.216   2.522   8.797  0.0061  0.2238  0.6397
 7658SOL    HW124415   7.283   2.512   8.864  0.3746 -0.5417  0.1656
 7658SOL    HW224416   7.223   2.443   8.744 -0.8740  0.4144  0.2276
 7659SOL     OW24417   1.693   2.902   7.004  0.5057  0.9823 -0.4009
 7659SOL    HW124418   1.690   2.880   6.911 -1.2688  1.1902 -0.4196
 7659SOL    HW224419   1.654   2.989   7.009  0.3565  0.8675  0.5753
 7660SOL     OW24420   6.810   0.374  11.274  0.3065  0.0035 -0.4028
 7660SOL    HW124421   6.852   0.289  11.261  0.0219  0.0418 -1.7096
 7660SOL    HW224422   6.882   0.437  11.265  0.6545 -0.1112  1.3115
 7661SOL     OW24423   6.976   5.484   7.562 -0.0742 -0.4155 -0.3679
 7661SOL    HW124424   7.035   5.409   7.566 -0.8582 -0.9934  0.5588
 7661SOL    HW224425   6.959   5.508   7.653 -0.6445  0.2411 -0.6303
 7662SOL     OW24426   3.446   2.699   4.352 -0.2230 -0.0076 -0.0101
 7662SOL    HW124427   3.366   2.678   4.400  0.0148  0.6538  0.6959
 7662SOL    HW224428   3.504   2.624   4.367  0.8752  1.2895  3.0345
 7663SOL     OW24429   5.241   6.201   4.807  0.0243  0.5539  0.2555
 7663SOL    HW124430   5.315   6.160   4.762  0.9387  0.8805  1.3870
 7663SOL    HW224431   5.239   6.290   4.773  1.5561  1.2189  1.7166
 7664SOL     OW24432   0.113   5.160   0.103 -0.3355  0.0019 -0.2775
 7664SOL    HW124433   0.058   5.215   0.159  1.4420  0.0881  1.4816
 7664SOL    HW224434   0.055   5.134   0.031 -2.3182  1.0014  0.8694
 7665SOL     OW24435   0.376   7.422   5.963  0.4126 -0.2376 -0.0489
 7665SOL    HW124436   0.449   7.405   5.902 -0.3616 -1.3138 -0.7002
 7665SOL    HW224437   0.352   7.513   5.944  0.3414 -0.4759 -1.2049
 7666SOL     OW24438   1.824   6.921   6.344 -0.0093 -0.1829 -0.4852
 7666SOL    HW124439   1.765   6.992   6.322  1.4354  0.8366 -1.2118
 7666SOL    HW224440   1.825   6.866   6.266  0.3757  0.0681 -0.6580
 7667SOL     OW24441   6.759   6.144   0.996 -0.4265 -0.5227 -0.2526
 7667SOL    HW124442   6.719   6.058   1.010 -1.0276 -0.3187 -0.6986
 7667SOL    HW224443   6.715   6.201   1.060 -0.8503 -0.3037 -0.7298
 7668SOL     OW24444   2.334   0.761   5.249 -0.2672  0.0845  0.4704
 7668SOL    HW124445   2.320   0.667   5.257 -3.0203  0.1599 -1.8112
 7668SOL    HW224446   2.251   0.800   5.275  0.5150  1.8463  0.4691
 7669SOL     OW24447   5.033   1.575   8.910  0.2208 -0.5617  0.4081
 7669SOL    HW124448   5.118   1.616   8.923  0.3016 -0.8481  0.7857
 7669SOL    HW224449   5.046   1.515   8.837  0.2001 -0.1995  0.1040
 7670SOL     OW24450   1.358   2.157   2.623 -0.7756  0.7241 -0.2141
 7670SOL    HW124451   1.433   2.163   2.564 -1.7610  1.3687 -1.4507
 7670SOL    HW224452   1.357   2.241   2.670  0.4884 -0.0924  1.4038
 7671SOL     OW24453   6.752   7.152   1.417  0.3010 -0.0798 -0.3831
 7671SOL    HW124454   6.770   7.083   1.480  0.0094  0.5110  0.3612
 7671SOL    HW224455   6.780   7.233   1.460 -0.5883  0.4201 -0.7027
 7672SOL     OW24456   6.063   2.981   2.155 -0.4199 -0.6375  0.4964
 7672SOL    HW124457   5.971   2.968   2.131 -0.4663  1.0115 -0.3363
 7672SOL    HW224458   6.092   3.054   2.101  1.3618 -1.0444  0.8438
 7673SOL     OW24459   3.677   6.025   9.302  0.7738  0.3931  0.2843
 7673SOL    HW124460   3.771   6.030   9.319  0.6327 -1.3345  1.8324
 7673SOL    HW224461   3.660   5.933   9.282 -0.5859  0.6894 -0.0762
 7674SOL     OW24462   0.766   4.121  10.741  0.0607  0.1804 -0.1161
 7674SOL    HW124463   0.740   4.187  10.805 -0.4170 -0.3537  0.2526
 7674SOL    HW224464   0.784   4.043  10.793 -2.3902 -0.9045 -0.7598
 7675SOL     OW24465   3.299   1.046   4.508  0.5979 -0.1823  0.1709
 7675SOL    HW124466   3.375   1.042   4.567  1.1006  0.8108 -0.3835
 7675SOL    HW224467   3.260   1.132   4.526 -0.3321 -0.6331  0.3561
 7676SOL     OW24468   1.721   2.401   2.228 -0.6019  0.1266 -0.1829
 7676SOL    HW124469   1.680   2.457   2.294 -0.6237  0.0087 -0.0962
 7676SOL    HW224470   1.649   2.370   2.173 -0.6126  0.0299 -0.1144
 7677SOL     OW24471   5.729   3.985   2.890 -0.5234 -0.4299  0.3860
 7677SOL    HW124472   5.687   3.929   2.955  0.4915 -1.4575  0.2043
 7677SOL    HW224473   5.768   3.923   2.828 -0.5730  0.5160 -0.6182
 7678SOL     OW24474   5.520   5.192  10.882  0.0085  0.3011  0.0218
 7678SOL    HW124475   5.487   5.277  10.913  1.9449  0.5019  1.7448
 7678SOL    HW224476   5.565   5.213  10.800 -1.2605  0.5623 -0.6316
 7679SOL     OW24477   7.390   7.370   0.933 -0.2986 -0.1343  0.0986
 7679SOL    HW124478   7.443   7.320   0.872  0.8167 -0.3825  1.2227
 7679SOL    HW224479   7.411   7.333   1.019 -1.9647  0.0620  0.6277
 7680SOL     OW24480   0.995   2.083   3.732 -0.4654 -0.1901 -0.1552
 7680SOL    HW124481   1.045   2.054   3.808 -0.3748  0.2338 -0.0471
 7680SOL    HW224482   1.055   2.073   3.658 -1.0923 -2.1628 -0.4452
 7681SOL     OW24483   0.936   0.053   8.891 -0.4720  0.5260  0.6821
 7681SOL    HW124484   0.956  -0.011   8.960 -0.0701  0.5384  0.5782
 7681SOL    HW224485   0.983   0.021   8.814  1.3099  1.9452  1.1157
 7682SOL     OW24486   4.485   0.870  10.186  0.0424 -0.4062  0.1429
 7682SOL    HW124487   4.442   0.859  10.271 -0.2524 -0.6285 -0.0323
 7682SOL    HW224488   4.424   0.924  10.135 -0.2067 -1.0236 -0.2267
 7683SOL     OW24489   5.099   6.351   3.650  0.5033  0.2470 -0.4105
 7683SOL    HW124490   5.019   6.325   3.604  0.6829  1.1960 -1.2849
 7683SOL    HW224491   5.170   6.316   3.596  0.7025  0.0530 -0.0303
 7684SOL     OW24492   4.376   3.208  11.605  0.2332  0.3666 -0.2634
 7684SOL    HW124493   4.402   3.274  11.542 -0.7409  0.3583 -0.6839
 7684SOL    HW224494   4.342   3.257  11.680  1.0024  0.3654  0.1022
 7685SOL     OW24495   2.659   0.963  12.068 -0.2412  0.2898 -0.2987
 7685SOL    HW124496   2.669   1.055  12.045 -1.3419  0.4634 -0.1437
 7685SOL    HW224497   2.579   0.959  12.120 -0.4097 -0.7994 -0.5968
 7686SOL     OW24498   5.414   1.152   8.148 -0.2631 -0.1847  0.2945
 7686SOL    HW124499   5.345   1.152   8.214 -0.1638 -2.4443  0.4864
 7686SOL    HW224500   5.466   1.074   8.168  0.7987  0.0312 -1.4291
 7687SOL     OW24501   5.794   3.350   3.929  0.0118  0.7716 -0.3558
 7687SOL    HW124502   5.705   3.382   3.944 -0.4523  0.7743 -2.6400
 7687SOL    HW224503   5.782   3.272   3.874  1.4303  1.5521 -1.8507
 7688SOL     OW24504   7.814   5.449   8.213 -0.6765 -0.2481  0.4812
 7688SOL    HW124505   7.737   5.410   8.173 -0.1162  1.4294 -2.5628
 7688SOL    HW224506   7.780   5.522   8.265 -1.1804  0.5979 -0.9871
 7689SOL     OW24507   1.825   5.170   6.604 -0.0509  0.5730 -0.1997
 7689SOL    HW124508   1.780   5.175   6.520  0.2727 -1.4490 -0.5397
 7689SOL    HW224509   1.757   5.189   6.669 -0.8110  0.0116 -0.8241
 7690SOL     OW24510   2.643   2.238   7.190 -0.1099  0.1165  0.3034
 7690SOL    HW124511   2.582   2.175   7.153 -0.4670  1.2720 -1.1582
 7690SOL    HW224512   2.620   2.242   7.283  0.4697 -2.4669  0.6268
 7691SOL     OW24513   7.280   6.272   3.979  0.1141 -0.7353  0.2988
 7691SOL    HW124514   7.357   6.220   4.002  1.3561 -0.0154 -1.8876
 7691SOL    HW224515   7.301   6.308   3.893 -1.3178  2.1255  1.0235
 7692SOL     OW24516   5.702   3.956   9.106  0.0902  0.5549 -0.0332
 7692SOL    HW124517   5.771   3.953   9.172  0.2244  2.0867 -0.0753
 7692SOL    HW224518   5.748   3.957   9.022  0.0353  1.3700 -0.0654
 7693SOL     OW24519   1.981   1.991   6.713 -0.0042  0.9027  0.0161
 7693SOL    HW124520   1.950   1.972   6.624 -1.7376 -0.5582  0.8665
 7693SOL    HW224521   1.988   1.906   6.755  2.6977  1.3931  0.7627
 7694SOL     OW24522   6.752   5.936   2.316 -0.3272 -0.4231  0.1463
 7694SOL    HW124523   6.779   6.027   2.322  1.4968 -0.8208 -1.1789
 7694SOL    HW224524   6.810   5.889   2.376 -1.6974 -0.6761  1.3364
 7695SOL     OW24525   0.970   7.018   7.843  0.5070 -0.3439 -0.2111
 7695SOL    HW124526   0.895   7.076   7.855  0.8363 -0.1039  0.7806
 7695SOL    HW224527   1.044   7.078   7.833  0.6296 -0.5838 -0.7500
 7696SOL     OW24528   6.385   2.910   1.998  0.3687  0.0201 -0.0637
 7696SOL    HW124529   6.408   2.830   1.950 -2.3005  0.6445 -2.6494
 7696SOL    HW224530   6.346   2.967   1.933  0.5754  2.7976  2.0612
 7697SOL     OW24531   3.855   4.887  11.107 -0.3297 -0.2902  0.0444
 7697SOL    HW124532   3.804   4.884  11.188 -0.8387 -0.8796 -0.2910
 7697SOL    HW224533   3.804   4.835  11.045 -0.6344  1.2445 -1.0417
 7698SOL     OW24534   3.740   6.886   6.960 -0.3978 -0.0420 -0.0830
 7698SOL    HW124535   3.728   6.807   6.909  0.8105  0.3850 -1.0691
 7698SOL    HW224536   3.825   6.920   6.933 -1.4838  2.3732 -0.7920
 7699SOL     OW24537   7.298   7.377   4.015  0.1699  0.2495  0.1464
 7699SOL    HW124538   7.356   7.341   3.948  0.0896  0.6967 -0.1714
 7699SOL    HW224539   7.284   7.468   3.988  1.0635  0.7878  1.4036
 7700SOL     OW24540   7.041   2.581   9.048 -0.2323 -0.0353 -0.0309
 7700SOL    HW124541   7.021   2.593   8.955 -1.6284 -0.8552  0.1286
 7700SOL    HW224542   7.105   2.509   9.049  0.6955  0.7662 -0.4078
 7701SOL     OW24543   6.340   6.848   1.883  0.1596  0.5353  0.1991
 7701SOL    HW124544   6.408   6.827   1.819  1.0487 -1.3581  1.6392
 7701SOL    HW224545   6.262   6.804   1.851 -0.1131  1.7575 -0.8739
 7702SOL     OW24546   0.076   3.841   1.952  0.3416 -0.0310 -0.2680
 7702SOL    HW124547   0.060   3.765   1.897 -0.7303 -0.1952  0.2576
 7702SOL    HW224548   0.134   3.809   2.021 -1.6762 -0.9058  1.0918
 7703SOL     OW24549   7.921   6.485   4.199 -0.7540 -0.1205 -0.1143
 7703SOL    HW124550   8.011   6.482   4.165  0.2938  3.4193  1.7959
 7703SOL    HW224551   7.870   6.521   4.127 -0.1029  0.2547 -0.4019
 7704SOL     OW24552   3.622   1.830   3.567  0.0648 -0.2217  0.1810
 7704SOL    HW124553   3.536   1.819   3.609  0.6406 -0.3509  1.3719
 7704SOL    HW224554   3.620   1.918   3.531 -0.4297 -0.0895  0.5224
 7705SOL     OW24555   1.417   7.081   2.318  0.7921 -0.2741 -0.1744
 7705SOL    HW124556   1.347   7.032   2.360  0.5976 -0.6716 -0.9383
 7705SOL    HW224557   1.465   7.123   2.390 -0.9689  1.0460  0.2936
 7706SOL     OW24558   5.695   6.330   9.065 -0.4345  0.0026 -0.1680
 7706SOL    HW124559   5.724   6.401   9.123  0.5074 -0.6075  0.1228
 7706SOL    HW224560   5.774   6.280   9.047 -0.7755 -0.0027 -1.7480
 7707SOL     OW24561   0.242   6.646   0.225  0.7536 -0.3038  0.1130
 7707SOL    HW124562   0.260   6.645   0.319 -1.7692  0.7027  0.6971
 7707SOL    HW224563   0.300   6.713   0.190  1.8258 -0.7872  0.9071
 7708SOL     OW24564   6.396   7.180   4.145  0.0126  0.4552  0.2522
 7708SOL    HW124565   6.334   7.240   4.187 -1.1182 -0.0459 -0.6550
 7708SOL    HW224566   6.344   7.133   4.080  1.1144 -0.7422  0.1925
 7709SOL     OW24567   5.053   5.256   7.005 -0.1800 -0.2187 -0.5533
 7709SOL    HW124568   5.065   5.344   7.041  1.2861  0.5515 -2.7575
 7709SOL    HW224569   5.111   5.201   7.057  0.3113  0.4622 -0.3716
 7710SOL     OW24570   7.287   7.192   7.350 -0.5517  0.0077 -0.3547
 7710SOL    HW124571   7.219   7.139   7.308 -3.0724 -0.6338  3.9607
 7710SOL    HW224572   7.247   7.278   7.362 -0.2900 -0.0761  1.3607
 7711SOL     OW24573   6.308   4.929   1.846  0.1416 -0.5623  0.1097
 7711SOL    HW124574   6.399   4.957   1.849 -0.1709  0.4278  2.5885
 7711SOL    HW224575   6.299   4.865   1.917 -0.7716 -1.8654 -1.1050
 7712SOL     OW24576   4.811   7.188   3.165  0.8534  0.3072  0.0965
 7712SOL    HW124577   4.809   7.282   3.181 -0.1034  0.2027  0.6949
 7712SOL    HW224578   4.848   7.179   3.077  0.2360  1.2957 -0.2840
 7713SOL     OW24579   2.670   2.130   4.853 -0.2629  0.0676 -0.0794
 7713SOL    HW124580   2.680   2.049   4.904  0.2794  0.0759 -0.1581
 7713SOL    HW224581   2.731   2.119   4.780 -3.1426 -1.2800 -2.5087
 7714SOL     OW24582   2.332   5.199   8.126  0.5584 -0.9407 -0.3959
 7714SOL    HW124583   2.392   5.126   8.133  1.8847 -0.2050 -2.7557
 7714SOL    HW224584   2.343   5.231   8.036 -0.4210  1.7430  0.3223
 7715SOL     OW24585   4.254   6.235   5.789  0.5157  0.3163 -0.5396
 7715SOL    HW124586   4.164   6.251   5.817  0.2627 -0.8707 -0.6230
 7715SOL    HW224587   4.260   6.273   5.702  0.4231  1.3588 -0.1037
 7716SOL     OW24588   6.790   3.568   3.821  0.2833 -0.6364  0.0509
 7716SOL    HW124589   6.882   3.551   3.801  0.7927 -0.1281  1.7684
 7716SOL    HW224590   6.759   3.487   3.861 -0.0846 -0.8763 -0.7081
 7717SOL     OW24591   7.192   2.158   1.513  0.5280  0.6980 -0.2845
 7717SOL    HW124592   7.263   2.101   1.485 -0.1990 -0.9371  1.0657
 7717SOL    HW224593   7.207   2.172   1.606 -0.8816  0.3424  0.0245
 7718SOL     OW24594   2.477   7.421  10.036  0.1493 -0.0184 -0.3166
 7718SOL    HW124595   2.491   7.368   9.958  0.8550  0.3699 -0.4591
 7718SOL    HW224596   2.548   7.485  10.035  0.1278  0.0324  0.6055
 7719SOL     OW24597   7.049   4.701   3.613 -0.1107 -0.5488 -0.1027
 7719SOL    HW124598   7.061   4.691   3.708 -1.5999 -3.8274 -0.1125
 7719SOL    HW224599   6.961   4.736   3.604 -0.3046 -1.0527 -0.2358
 7720SOL     OW24600   3.947   3.461  10.114  0.6165 -0.3821 -0.0858
 7720SOL    HW124601   4.015   3.437  10.051  0.8915 -0.9234  0.4057
 7720SOL    HW224602   3.993   3.470  10.198  0.0757 -0.8946  0.2798
 7721SOL     OW24603   4.893   3.562  12.062  0.7161  0.4578  0.4988
 7721SOL    HW124604   4.963   3.509  12.024 -0.0431 -0.7384  0.6723
 7721SOL    HW224605   4.817   3.543  12.007  0.3688  1.1990  0.7148
 7722SOL     OW24606   1.490   2.007   1.122  0.4238 -0.5028  1.0582
 7722SOL    HW124607   1.437   1.953   1.181  1.1398  0.6183  2.7784
 7722SOL    HW224608   1.522   1.945   1.056 -3.4677 -1.1474 -0.5073
 7723SOL     OW24609   2.902   4.833  10.431  0.6727  0.2063  0.2864
 7723SOL    HW124610   2.973   4.781  10.470 -0.2181 -1.3001 -0.0276
 7723SOL    HW224611   2.944   4.914  10.404  1.7480  0.4325  2.4513
 7724SOL     OW24612   3.810   0.946   9.867 -0.2565 -0.2160  0.0119
 7724SOL    HW124613   3.728   0.993   9.847  0.1596 -0.1318 -1.6190
 7724SOL    HW224614   3.839   0.983   9.950 -0.9730  1.0052 -0.2625
 7725SOL     OW24615   1.073   5.562   3.822  0.4189 -0.7841 -0.6427
 7725SOL    HW124616   1.119   5.597   3.745  1.9734 -0.8516  0.2057
 7725SOL    HW224617   1.026   5.637   3.859  0.9885 -0.3668 -0.7485
 7726SOL     OW24618   6.392   5.430   9.981 -0.1923  0.2230  0.8678
 7726SOL    HW124619   6.428   5.508  10.023  0.3429  0.1605  0.5388
 7726SOL    HW224620   6.468   5.376   9.961 -0.2106  0.9522 -1.6071
 7727SOL     OW24621   7.397   7.817  10.473  0.6007 -0.4354  0.5473
 7727SOL    HW124622   7.377   7.728  10.501 -1.3713 -0.1862  0.0646
 7727SOL    HW224623   7.314   7.852  10.440  1.7392  0.9005 -1.1466
 7728SOL     OW24624   7.450   5.984   6.106 -0.2590  0.0900  0.2660
 7728SOL    HW124625   7.495   5.952   6.028  0.2364 -0.1470  0.6420
 7728SOL    HW224626   7.357   5.983   6.082 -0.1639 -0.5537 -0.1129
 7729SOL     OW24627   1.381   0.407   1.931  0.8431 -0.1848 -0.1062
 7729SOL    HW124628   1.345   0.326   1.895  0.9006 -0.8247  1.2460
 7729SOL    HW224629   1.471   0.410   1.899  0.3347  0.2498 -1.5864
 7730SOL     OW24630   1.452   0.406   8.730 -0.1246 -0.3503 -0.1472
 7730SOL    HW124631   1.406   0.379   8.650 -1.2053 -0.0665  0.3679
 7730SOL    HW224632   1.516   0.470   8.700 -0.5843 -0.1774 -0.7812
 7731SOL     OW24633   4.449   7.013   3.561  0.4442 -0.2684 -0.0799
 7731SOL    HW124634   4.514   7.066   3.515  2.0976 -1.1715  1.1218
 7731SOL    HW224635   4.495   6.932   3.584 -1.3836 -1.3385  0.0252
 7732SOL     OW24636   1.077   0.459   3.202 -0.0340  0.0003 -0.0713
 7732SOL    HW124637   1.110   0.385   3.254 -1.1650  0.3401  1.1689
 7732SOL    HW224638   1.128   0.455   3.121 -0.5836 -2.6207 -0.3923
 7733SOL     OW24639   6.935   1.352  11.235  0.5653  0.1793 -0.6345
 7733SOL    HW124640   6.942   1.277  11.175 -0.0805 -0.8681  0.5382
 7733SOL    HW224641   7.014   1.348  11.289  1.2180  1.2058 -1.4861
 7734SOL     OW24642   2.433   3.112  12.376 -0.0224  0.2956 -0.0137
 7734SOL    HW124643   2.401   3.202  12.374 -1.0109 -0.0424  0.1077
 7734SOL    HW224644   2.386   3.068  12.305 -1.0814 -0.6007  1.1785
 7735SOL     OW24645   3.976   3.514   1.567  0.1095 -0.4177  0.3897
 7735SOL    HW124646   3.950   3.574   1.637  0.7781  0.0393  0.2655
 7735SOL    HW224647   4.015   3.571   1.500 -0.7368 -0.8227 -0.4701
 7736SOL     OW24648   4.156   0.112  10.510 -0.3076  0.1974 -0.3491
 7736SOL    HW124649   4.246   0.079  10.518 -0.6948 -1.0300 -0.8378
 7736SOL    HW224650   4.166   0.200  10.475  0.6754 -0.1865 -1.0876
 7737SOL     OW24651   4.754   4.461  10.138 -0.5780  0.6363  0.1184
 7737SOL    HW124652   4.746   4.542  10.088 -0.3153  0.7245  0.2149
 7737SOL    HW224653   4.846   4.458  10.164 -0.5638  0.2597  0.0330
 7738SOL     OW24654   1.128   0.580   4.614 -0.5745 -0.0175 -0.6025
 7738SOL    HW124655   1.133   0.632   4.694 -0.1620 -2.1504  0.8614
 7738SOL    HW224656   1.219   0.568   4.587 -0.6213 -0.4938 -0.5577
 7739SOL     OW24657   0.025   0.053   3.593  0.1568 -0.3197 -0.1001
 7739SOL    HW124658  -0.063   0.017   3.603  1.0153 -2.2332  1.0318
 7739SOL    HW224659   0.081  -0.005   3.644  1.7878  2.1974  1.1759
 7740SOL     OW24660   0.482   4.650  10.618 -0.1235  0.3806 -0.0835
 7740SOL    HW124661   0.488   4.743  10.596  0.0632  0.3011 -0.3784
 7740SOL    HW224662   0.573   4.624  10.635  0.0711 -0.1593 -1.7391
 7741SOL     OW24663   1.002   3.126   6.923  0.1106  0.8617  0.2260
 7741SOL    HW124664   1.075   3.176   6.884 -1.1330  1.4065 -1.4973
 7741SOL    HW224665   0.924   3.175   6.898 -1.0847 -1.3192 -0.4949
 7742SOL     OW24666   7.716   3.545   7.484 -0.1912 -0.7604  0.3723
 7742SOL    HW124667   7.626   3.571   7.504 -0.0768  0.5962 -0.7745
 7742SOL    HW224668   7.707   3.480   7.414 -0.2586 -0.4237  0.0709
 7743SOL     OW24669   0.648   7.336   3.467 -0.0371 -0.7221 -0.6541
 7743SOL    HW124670   0.696   7.270   3.516 -0.1682 -1.0716 -0.9930
 7743SOL    HW224671   0.560   7.335   3.504 -0.0349 -0.7289 -0.6491
 7744SOL     OW24672   6.854   7.020   5.695 -0.1159 -0.0340  0.9144
 7744SOL    HW124673   6.894   6.944   5.652 -1.5129 -1.1717  1.5411
 7744SOL    HW224674   6.899   7.026   5.779 -0.3067 -0.4619  1.0517
 7745SOL     OW24675   5.480   7.614   0.241  0.1865 -0.2287 -0.3316
 7745SOL    HW124676   5.556   7.622   0.299  0.6387  2.7452 -1.1612
 7745SOL    HW224677   5.512   7.641   0.155 -1.2385 -1.4354 -1.2984
 7746SOL     OW24678   3.977   6.695   9.798  0.1755  0.1334  0.0952
 7746SOL    HW124679   3.985   6.646   9.716 -1.0528  0.2830 -0.1333
 7746SOL    HW224680   4.068   6.706   9.828  1.0205  3.0145 -2.9670
 7747SOL     OW24681   7.555   0.233  10.686  0.6387  0.3705  0.2149
 7747SOL    HW124682   7.507   0.154  10.663 -0.1749 -0.2676  3.5716
 7747SOL    HW224683   7.516   0.302  10.632 -0.5250 -1.0298 -0.7982
 7748SOL     OW24684   6.226   5.657  10.787  0.0334  0.0452 -0.1817
 7748SOL    HW124685   6.149   5.695  10.830 -0.1687  0.9694 -1.3183
 7748SOL    HW224686   6.299   5.687  10.841 -0.3521 -0.4478  0.6377
 7749SOL     OW24687   3.864   7.724   1.345  0.4851  0.9425 -0.1999
 7749SOL    HW124688   3.953   7.688   1.354 -0.1537 -0.4321  1.1760
 7749SOL    HW224689   3.877   7.809   1.304  2.5937  1.4703  1.3468
 7750SOL     OW24690   1.278   2.585   7.690 -0.2626  0.2182 -0.2786
 7750SOL    HW124691   1.202   2.628   7.650 -1.7220 -1.3133  0.7182
 7750SOL    HW224692   1.352   2.610   7.634 -1.5770  1.2976 -1.6161
 7751SOL     OW24693   7.445   5.699  12.023  0.0021  0.1476  0.0190
 7751SOL    HW124694   7.367   5.732  12.067  1.0789  1.0423  1.3450
 7751SOL    HW224695   7.428   5.606  12.011 -0.4653 -0.1000  2.1467
 7752SOL     OW24696   7.203   2.835   9.560  0.3389 -0.4362  0.4159
 7752SOL    HW124697   7.116   2.837   9.521  0.0764  0.4289  1.0289
 7752SOL    HW224698   7.189   2.800   9.648  0.5918 -0.1678  0.5649
 7753SOL     OW24699   1.034   5.746   5.243 -0.4695 -0.4884 -0.5602
 7753SOL    HW124700   1.014   5.817   5.304  0.8969 -1.9918  1.8016
 7753SOL    HW224701   0.990   5.771   5.162 -1.0090  2.4430  0.5105
 7754SOL     OW24702   5.510   7.920   5.649  0.0126 -0.0870  0.1836
 7754SOL    HW124703   5.569   7.908   5.723 -0.3389  0.0669  0.4882
 7754SOL    HW224704   5.561   7.972   5.586  0.7709 -1.2799 -0.2305
 7755SOL     OW24705   5.397   4.142   0.159 -0.2499  0.0755  0.2437
 7755SOL    HW124706   5.323   4.185   0.116 -0.6982 -0.4243  0.4975
 7755SOL    HW224707   5.442   4.095   0.088 -1.7950 -1.8976  0.4890
 7756SOL     OW24708   1.789   7.624   1.564  0.1758  0.1884 -0.0080
 7756SOL    HW124709   1.863   7.659   1.514 -1.0470  1.0408 -1.3297
 7756SOL    HW224710   1.757   7.699   1.614 -1.5291  0.6611 -1.6825
 7757SOL     OW24711   4.226   6.105   2.305 -0.0006 -0.5033  0.0051
 7757SOL    HW124712   4.144   6.093   2.352  0.9587 -0.2167  1.8240
 7757SOL    HW224713   4.202   6.158   2.229 -1.8835 -2.3663 -0.8061
 7758SOL     OW24714   5.858   6.589   7.971 -0.5602 -0.0677  0.3420
 7758SOL    HW124715   5.835   6.680   7.991 -2.8580 -0.6513  0.6370
 7758SOL    HW224716   5.846   6.581   7.877 -1.9525 -0.4341  0.5282
 7759SOL     OW24717   6.693   6.849   1.421  0.3623 -0.1171 -0.0179
 7759SOL    HW124718   6.788   6.844   1.413  0.4004 -0.6260  0.6524
 7759SOL    HW224719   6.678   6.905   1.498  0.1960 -2.2248  1.5689
 7760SOL     OW24720   3.603   7.770   6.821 -0.4764 -0.3798  0.2755
 7760SOL    HW124721   3.667   7.757   6.752 -1.3112 -1.1662 -0.3844
 7760SOL    HW224722   3.645   7.736   6.900 -0.3021 -1.5140 -0.2757
 7761SOL     OW24723   6.814   6.726   9.142 -0.7229 -0.0620 -0.2293
 7761SOL    HW124724   6.875   6.799   9.148 -0.8702 -0.0295  1.5944
 7761SOL    HW224725   6.869   6.648   9.146 -0.7558 -0.0935  3.9358
 7762SOL     OW24726   0.295   6.363   3.419  0.2509  0.6774 -0.7510
 7762SOL    HW124727   0.302   6.311   3.339 -1.4209 -1.9609  0.6776
 7762SOL    HW224728   0.362   6.328   3.477 -0.3075  0.7266 -0.0650
 7763SOL     OW24729   5.352   3.009   0.609  0.0576  0.0476 -0.7175
 7763SOL    HW124730   5.430   2.954   0.596 -0.5288 -0.6358 -1.4117
 7763SOL    HW224731   5.385   3.098   0.602  1.1934 -0.1540  1.3324
 7764SOL     OW24732   6.346   3.531  11.043  0.9438  0.2176 -0.7314
 7764SOL    HW124733   6.287   3.513  11.116  1.5435 -0.2016 -0.3355
 7764SOL    HW224734   6.298   3.591  10.987 -0.1301 -0.6571 -0.7822
 7765SOL     OW24735   1.048   7.225   9.231  0.0898 -0.0504 -0.5520
 7765SOL    HW124736   1.010   7.139   9.250 -0.8665  0.5140  0.1860
 7765SOL    HW224737   0.984   7.288   9.265  1.6737  0.9495  0.7221
 7766SOL     OW24738   1.350   5.569   8.401  0.0518 -0.1793 -0.0313
 7766SOL    HW124739   1.387   5.647   8.443 -1.2618 -0.4368  1.7381
 7766SOL    HW224740   1.407   5.552   8.326  1.2243  1.6103  0.3977
 7767SOL     OW24741   4.980   1.133  10.775 -1.0646  0.9061 -0.5002
 7767SOL    HW124742   4.989   1.146  10.870 -2.5143  0.8065 -0.3314
 7767SOL    HW224743   4.971   1.222  10.740 -0.8550  0.9249 -0.5066
 7768SOL     OW24744   3.510   5.508   5.060  0.1107  0.0667 -0.3726
 7768SOL    HW124745   3.433   5.476   5.012 -0.2954  1.4252 -0.6736
 7768SOL    HW224746   3.515   5.601   5.038  2.9202 -0.3251 -1.7948
 7769SOL     OW24747   5.022   1.662   0.650  0.2268 -0.7996 -0.2360
 7769SOL    HW124748   5.033   1.740   0.704 -0.2778 -1.9012  1.5463
 7769SOL    HW224749   4.944   1.680   0.597 -0.9813 -0.7322  1.4625
 7770SOL     OW24750   4.002   7.725   6.391 -0.2725  0.0363  0.0896
 7770SOL    HW124751   4.066   7.796   6.403  1.4685 -1.4237 -0.0444
 7770SOL    HW224752   4.039   7.652   6.441 -0.8408 -1.4447 -1.5856
 7771SOL     OW24753   3.464   6.144   6.180 -0.1688  0.2490 -0.1568
 7771SOL    HW124754   3.520   6.098   6.244  0.7584 -1.7775 -2.2424
 7771SOL    HW224755   3.520   6.213   6.145  0.9140 -1.3099 -1.7047
 7772SOL     OW24756   4.168   5.008  10.376  0.6225  0.4511 -0.2483
 7772SOL    HW124757   4.150   5.085  10.323  0.3363  0.4708 -0.1246
 7772SOL    HW224758   4.263   5.002  10.378  0.6391 -0.0476 -1.4867
 7773SOL     OW24759   1.828   2.537  10.070  0.6268  0.5034  0.7264
 7773SOL    HW124760   1.834   2.598   9.997  0.4268 -0.1258  0.1661
 7773SOL    HW224761   1.768   2.578  10.132  0.6512  0.9594  0.4516
 7774SOL     OW24762   1.545   2.405   7.480 -0.5714 -0.0757  0.0476
 7774SOL    HW124763   1.512   2.349   7.410 -1.6258 -0.0339  0.4955
 7774SOL    HW224764   1.520   2.494   7.453 -1.4248 -0.1006  0.6834
 7775SOL     OW24765   6.295   2.881   2.240  0.3516  0.0596  0.1970
 7775SOL    HW124766   6.208   2.905   2.209 -0.5270 -0.3087  2.2419
 7775SOL    HW224767   6.347   2.870   2.160 -1.2511  1.0622 -1.0269
 7776SOL     OW24768   3.588   6.366  10.558  0.4458 -0.1107  0.2053
 7776SOL    HW124769   3.509   6.339  10.511  0.2658  1.7866 -0.6955
 7776SOL    HW224770   3.631   6.428  10.499  1.0234  1.1941  1.9078
 7777SOL     OW24771   1.595   7.148   3.684  0.3263  0.4908  0.8519
 7777SOL    HW124772   1.578   7.146   3.590 -1.4459 -0.3110  1.1602
 7777SOL    HW224773   1.690   7.135   3.691  0.7245  2.0269 -0.8561
 7778SOL     OW24774   3.112   7.197   7.874 -0.0317 -0.0023  0.4527
 7778SOL    HW124775   3.089   7.265   7.937  0.7602 -0.5058  1.3224
 7778SOL    HW224776   3.105   7.239   7.789  3.5642  2.2121  1.0363
 7779SOL     OW24777   6.672   0.053  10.780  0.2012 -0.4209 -0.4546
 7779SOL    HW124778   6.601   0.078  10.722 -0.5872 -0.1046  0.6134
 7779SOL    HW224779   6.660   0.108  10.858  1.8638 -0.0650 -0.4248
 7780SOL     OW24780   4.215   5.801  12.326  0.3860  0.1947 -0.2977
 7780SOL    HW124781   4.137   5.844  12.360 -0.2677 -0.9992 -0.1989
 7780SOL    HW224782   4.289   5.846  12.366 -0.2853  0.7917  0.2705
 7781SOL     OW24783   0.990   3.690   0.836  0.8095 -0.2007  0.2196
 7781SOL    HW124784   0.976   3.621   0.771 -0.3849  0.4439 -0.2503
 7781SOL    HW224785   1.050   3.651   0.900 -0.1629 -1.8395  0.2056
 7782SOL     OW24786   7.197   6.244   5.272 -0.1918 -0.1295 -0.5112
 7782SOL    HW124787   7.274   6.267   5.220 -0.4171 -0.0362 -0.8103
 7782SOL    HW224788   7.180   6.322   5.325  0.9791 -0.7841  0.8823
 7783SOL     OW24789   0.569   0.406   3.165  0.5611 -0.6682  0.3183
 7783SOL    HW124790   0.653   0.451   3.177  0.3891 -0.3385  0.3076
 7783SOL    HW224791   0.575   0.366   3.079 -0.0228  1.0026 -0.5572
 7784SOL     OW24792   5.143   2.295   1.125 -0.3410 -0.0392  0.5403
 7784SOL    HW124793   5.201   2.370   1.111 -1.8257  0.7987 -1.4690
 7784SOL    HW224794   5.065   2.333   1.165  0.6792 -1.2920  4.1390
 7785SOL     OW24795   7.077   5.991   9.357  0.4928 -0.0239  0.0333
 7785SOL    HW124796   7.092   5.908   9.311  0.2850  0.1761 -0.4029
 7785SOL    HW224797   7.044   6.050   9.289  1.4197  0.6666  0.1641
 7786SOL     OW24798   2.769   6.152   3.138 -0.2914 -0.1312 -0.1598
 7786SOL    HW124799   2.801   6.102   3.063 -0.2465 -0.3636  0.0129
 7786SOL    HW224800   2.816   6.235   3.134  1.1347 -0.8558  0.6860
 7787SOL     OW24801   4.527   1.222  10.068 -0.1402 -0.2676 -0.1366
 7787SOL    HW124802   4.444   1.263  10.043 -1.1207 -1.8187  0.4822
 7787SOL    HW224803   4.513   1.190  10.157  0.8358 -1.3086 -0.3317
 7788SOL     OW24804   6.278   5.264   1.827 -0.0229 -0.7896  0.2301
 7788SOL    HW124805   6.369   5.236   1.814 -0.1216 -0.6852 -0.8524
 7788SOL    HW224806   6.282   5.360   1.822 -0.1537 -0.7718  0.4634
 7789SOL     OW24807   0.615   4.691   7.898  0.2292 -0.3971 -0.4221
 7789SOL    HW124808   0.528   4.727   7.915  0.3018  0.0558 -0.9654
 7789SOL    HW224809   0.616   4.606   7.941  0.3236  0.5860  1.6260
 7790SOL     OW24810   4.293   1.224   5.078 -0.0951 -0.5215  0.5941
 7790SOL    HW124811   4.303   1.318   5.063  4.1076 -1.0092 -0.6967
 7790SOL    HW224812   4.303   1.184   4.992 -0.9867 -2.2294  1.2365
 7791SOL     OW24813   0.596   0.217   1.379 -0.0092 -0.0032 -0.1088
 7791SOL    HW124814   0.512   0.183   1.409  0.0877  0.7333  1.0603
 7791SOL    HW224815   0.653   0.141   1.377 -0.8122 -0.6007 -1.3825
 7792SOL     OW24816   3.160   1.840  12.109  0.0199 -0.2403  0.3804
 7792SOL    HW124817   3.163   1.780  12.035  1.3268 -0.3904  0.5218
 7792SOL    HW224818   3.115   1.792  12.178  0.6755 -0.9129  0.3511
 7793SOL     OW24819   6.027   5.080   4.906  0.6892  0.3705  0.4455
 7793SOL    HW124820   5.951   5.088   4.849  1.3303 -2.4504 -1.0240
 7793SOL    HW224821   5.992   5.088   4.994 -1.3360 -0.7993 -0.1904
 7794SOL     OW24822   7.660   4.823   1.681  0.4179  0.0913  0.2982
 7794SOL    HW124823   7.630   4.734   1.665 -0.8595  0.6195 -0.3484
 7794SOL    HW224824   7.750   4.824   1.648  0.5998 -1.0599  0.7087
 7795SOL     OW24825   4.614   7.943  11.710 -0.4785  0.8591 -0.6955
 7795SOL    HW124826   4.587   7.994  11.634  0.2977  0.4132 -1.2873
 7795SOL    HW224827   4.709   7.946  11.708 -0.2579 -2.4898 -2.1328
 7796SOL     OW24828   2.967   1.294   0.507 -0.0619  1.0252  0.4738
 7796SOL    HW124829   2.883   1.275   0.467 -0.2866  2.9196 -0.0882
 7796SOL    HW224830   3.012   1.349   0.442  1.4828  0.2946  0.8892
 7797SOL     OW24831   7.710   3.604   5.926 -0.2391  0.1622 -0.4511
 7797SOL    HW124832   7.683   3.638   5.841  0.8309 -1.5971 -1.5476
 7797SOL    HW224833   7.628   3.585   5.971 -0.8271  1.8359 -0.7467
 7798SOL     OW24834   0.958   5.065  11.360  0.2571  0.1555 -0.4006
 7798SOL    HW124835   0.879   5.042  11.311  0.4368 -0.5195 -0.3848
 7798SOL    HW224836   0.973   4.990  11.418  0.1379  0.8744  0.5756
 7799SOL     OW24837   0.706   5.494   5.862  0.0240 -0.5786  0.2077
 7799SOL    HW124838   0.732   5.441   5.786 -0.0548 -2.3474  1.3462
 7799SOL    HW224839   0.788   5.528   5.897  0.4695 -2.5239  1.2252
 7800SOL     OW24840   3.706   0.474   8.827 -0.4070 -0.4940  0.3082
 7800SOL    HW124841   3.762   0.437   8.760 -1.2329 -2.3957  0.6004
 7800SOL    HW224842   3.755   0.464   8.909 -1.0426 -1.9871  0.5371
 7801SOL     OW24843   2.015   5.938   4.365  0.0740  0.1069 -0.5763
 7801SOL    HW124844   1.958   5.876   4.411  1.3441 -1.2204 -0.7372
 7801SOL    HW224845   1.957   6.012   4.343 -1.9081 -1.7390 -1.9140
 7802SOL     OW24846   2.329   4.268   3.858 -0.9934  0.3087  0.3811
 7802SOL    HW124847   2.240   4.273   3.893 -1.1772  0.2140 -0.0594
 7802SOL    HW224848   2.368   4.193   3.903 -1.6960 -0.7036 -0.6283
 7803SOL     OW24849   0.539   0.642   0.314  0.2513 -0.2667 -0.0353
 7803SOL    HW124850   0.622   0.598   0.296  1.4863  1.9161  0.0408
 7803SOL    HW224851   0.519   0.691   0.234 -1.5320 -1.5136 -0.4340
 7804SOL     OW24852   6.181   2.093  11.966 -0.3145 -0.2140 -0.5671
 7804SOL    HW124853   6.271   2.063  11.976  0.0343  0.5624 -1.2735
 7804SOL    HW224854   6.131   2.013  11.947  0.6190 -0.3655 -2.5913
 7805SOL     OW24855   0.144   1.359   6.330  0.2747 -0.2499  0.3668
 7805SOL    HW124856   0.118   1.318   6.248 -2.5044  1.0861  0.4876
 7805SOL    HW224857   0.199   1.293   6.373 -1.3315 -2.5137 -0.8669
 7806SOL     OW24858   6.101   5.068   8.207  0.3297 -0.1852  0.4787
 7806SOL    HW124859   6.136   4.995   8.258  1.7329 -0.8247 -1.2728
 7806SOL    HW224860   6.049   5.118   8.269  1.1989 -1.4082  2.2941
 7807SOL     OW24861   2.166   0.817   4.968  0.2010  0.0497 -0.2574
 7807SOL    HW124862   2.156   0.832   5.062  2.4286 -1.0611  0.2307
 7807SOL    HW224863   2.098   0.871   4.928 -0.8302  0.5342  1.9759
 7808SOL     OW24864   0.276   7.113   6.810 -0.6121 -0.4874 -0.1492
 7808SOL    HW124865   0.253   7.185   6.868  1.8835  1.2250 -1.1295
 7808SOL    HW224866   0.283   7.037   6.867 -1.3343  0.4497  1.2356
 7809SOL     OW24867   5.946   3.216   0.701 -0.9400 -0.6493 -0.1662
 7809SOL    HW124868   5.864   3.170   0.717 -1.0980 -0.4622 -0.4327
 7809SOL    HW224869   5.921   3.308   0.692 -0.5611 -0.4371  0.8859
 7810SOL     OW24870   5.354   5.512  11.223  0.2017 -0.1463  0.2238
 7810SOL    HW124871   5.258   5.511  11.214  0.2337  1.2921 -0.5395
 7810SOL    HW224872   5.375   5.424  11.255 -1.4845 -0.0926  1.7302
 7811SOL     OW24873   0.203   3.474   3.255  0.4074 -0.4246 -0.0463
 7811SOL    HW124874   0.145   3.486   3.329  0.4272  1.5771 -0.3066
 7811SOL    HW224875   0.187   3.384   3.226 -0.4160 -0.8655  1.6529
 7812SOL     OW24876   5.687   0.873  10.333 -0.5864 -0.4552 -0.1666
 7812SOL    HW124877   5.621   0.809  10.361  1.8599 -3.0224  0.2457
 7812SOL    HW224878   5.757   0.864  10.398  0.5080  1.6121 -0.9698
 7813SOL     OW24879   0.735   5.444   7.831  0.0074 -0.3408  0.4679
 7813SOL    HW124880   0.793   5.429   7.756 -0.1086  0.6864  0.1569
 7813SOL    HW224881   0.656   5.482   7.793 -0.6301 -1.1240  0.9649
 7814SOL     OW24882   2.858   0.627   6.310 -0.0067 -0.4861  0.1581
 7814SOL    HW124883   2.790   0.577   6.265 -1.3185  1.7771 -0.5386
 7814SOL    HW224884   2.829   0.629   6.402 -0.7493  0.2001 -0.0801
 7815SOL     OW24885   1.705   0.732   5.901  0.1504  0.4838  0.1065
 7815SOL    HW124886   1.637   0.678   5.941  0.0936  0.9460  0.6559
 7815SOL    HW224887   1.730   0.686   5.821 -0.3724 -0.0009  0.2229
 7816SOL     OW24888   4.912   6.325   1.877 -0.7809 -0.1646 -0.6656
 7816SOL    HW124889   4.824   6.302   1.907 -0.5037  2.1565  2.4306
 7816SOL    HW224890   4.967   6.251   1.903 -1.4066 -0.4705 -0.1898
 7817SOL     OW24891   4.337   5.128   3.931  0.3924 -0.1237 -0.3756
 7817SOL    HW124892   4.347   5.189   3.858 -0.2624  0.4526 -0.0061
 7817SOL    HW224893   4.425   5.095   3.947  0.9509  1.4081 -0.0251
 7818SOL     OW24894   2.548   6.869  11.971 -0.1913  0.6698 -0.4710
 7818SOL    HW124895   2.597   6.833  11.897  0.6209  1.5707 -0.3933
 7818SOL    HW224896   2.506   6.793  12.012  0.1039  0.0463 -1.2986
 7819SOL     OW24897   5.028   5.085   3.749 -0.5069  0.1948 -0.0432
 7819SOL    HW124898   5.105   5.082   3.693  0.6748  0.4077  1.4966
 7819SOL    HW224899   5.026   5.000   3.791 -1.0627  0.2286  0.0029
 7820SOL     OW24900   1.804   6.062   6.198  0.0927  0.0608  0.2185
 7820SOL    HW124901   1.827   5.978   6.238  1.4494  0.4351  0.2546
 7820SOL    HW224902   1.839   6.057   6.109 -1.6838 -0.2130 -0.5246
 7821SOL     OW24903   1.556   2.959   9.364  0.4248 -0.0441  0.0377
 7821SOL    HW124904   1.641   2.916   9.350 -0.3032 -1.7296  0.5666
 7821SOL    HW224905   1.498   2.918   9.300  0.0770  1.4283 -0.6407
 7822SOL     OW24906   2.533   0.177  10.421 -0.2461  0.3642  0.0524
 7822SOL    HW124907   2.574   0.208  10.340  0.1986  1.9422  0.8406
 7822SOL    HW224908   2.439   0.193  10.408 -0.1714  0.6538 -0.1447
 7823SOL     OW24909   0.710   5.498   7.271 -0.3293  0.6190 -0.4720
 7823SOL    HW124910   0.728   5.421   7.217  1.5856  0.8955 -0.2823
 7823SOL    HW224911   0.628   5.533   7.235 -0.6738 -0.8907 -1.2471
 7824SOL     OW24912   7.019   0.996   6.118 -0.2497  0.0231  0.1572
 7824SOL    HW124913   6.937   0.953   6.141 -0.1529 -0.1436  0.1944
 7824SOL    HW224914   7.023   1.072   6.175 -0.8074  0.5281 -0.4649
 7825SOL     OW24915   7.838   6.759  10.338 -0.0911 -0.3720 -0.0567
 7825SOL    HW124916   7.759   6.721  10.300 -0.0227  1.1147 -1.8209
 7825SOL    HW224917   7.816   6.774  10.430 -0.7999 -2.6715  0.2083
 7826SOL     OW24918   4.992   5.057   1.538  0.1502  0.4056  0.3718
 7826SOL    HW124919   4.989   5.034   1.630 -1.8055  1.3456  0.5967
 7826SOL    HW224920   4.950   5.143   1.533  2.0799  1.3743 -1.1395
 7827SOL     OW24921   5.706   3.714   9.418 -0.3806  0.2905  0.7003
 7827SOL    HW124922   5.656   3.795   9.407 -0.1113  0.3206 -0.5271
 7827SOL    HW224923   5.648   3.645   9.386 -0.2671  0.1165  0.8672
 7828SOL     OW24924   6.871   5.376  11.851  0.4328 -0.3631 -0.2328
 7828SOL    HW124925   6.948   5.398  11.798 -0.1792 -0.1814 -1.0508
 7828SOL    HW224926   6.801   5.431  11.816 -0.7252 -2.3809 -1.2389
 7829SOL     OW24927   2.356   5.994   2.143 -0.7374  0.1166 -0.2920
 7829SOL    HW124928   2.379   6.076   2.100  0.9591  0.0463  0.4187
 7829SOL    HW224929   2.314   5.942   2.074  0.4909  0.6043 -1.4485
 7830SOL     OW24930   0.041   4.734   6.862 -0.2279 -0.1185  0.4356
 7830SOL    HW124931  -0.029   4.798   6.876 -1.7466 -1.1637 -1.7249
 7830SOL    HW224932   0.121   4.778   6.890 -1.5062  1.8415  1.1870
 7831SOL     OW24933   7.593   7.412   1.987  0.5066  0.1757 -0.2116
 7831SOL    HW124934   7.520   7.351   1.991  1.1424 -0.5477  1.0354
 7831SOL    HW224935   7.562   7.483   1.931 -1.0210 -0.2664  0.0236
 7832SOL     OW24936   3.237   7.430   8.175 -0.2935 -0.6252 -0.2491
 7832SOL    HW124937   3.182   7.352   8.185 -0.5267 -0.3444  0.8476
 7832SOL    HW224938   3.199   7.477   8.101  0.3111 -1.9131 -1.4251
 7833SOL     OW24939   0.979   7.615   5.359 -0.0397  0.3125  0.2286
 7833SOL    HW124940   0.940   7.640   5.442  0.5079  0.0759  0.5639
 7833SOL    HW224941   1.019   7.529   5.376 -0.3876  0.0133 -0.4213
 7834SOL     OW24942   2.058   1.311   4.735  0.1944 -0.3936  0.6288
 7834SOL    HW124943   2.032   1.388   4.684 -1.4104 -0.4458  1.3163
 7834SOL    HW224944   2.108   1.257   4.674  3.0793  2.0149  0.5814
 7835SOL     OW24945   4.900   7.154   1.598 -0.2451  0.3413  0.2381
 7835SOL    HW124946   4.954   7.200   1.661  1.8605 -0.2695 -1.0278
 7835SOL    HW224947   4.860   7.082   1.648 -1.4644  1.9059  1.6142
 7836SOL     OW24948   3.870   3.986   0.062 -0.4406  0.3876  0.1982
 7836SOL    HW124949   3.951   3.982   0.010 -0.5487  1.6045 -0.0865
 7836SOL    HW224950   3.862   3.898   0.100 -0.0804 -0.3746 -1.4138
 7837SOL     OW24951   7.064   4.763  11.650  0.4301 -0.2581 -0.2026
 7837SOL    HW124952   7.096   4.757  11.740 -0.6759 -0.3284  0.2026
 7837SOL    HW224953   7.084   4.852  11.622  0.3848 -0.0990  0.2699
 7838SOL     OW24954   6.043   3.696   8.260 -0.2721  0.4161 -0.6756
 7838SOL    HW124955   5.951   3.671   8.249  0.2191 -1.4411 -0.7570
 7838SOL    HW224956   6.080   3.693   8.172  0.2869 -0.6496 -0.4211
 7839SOL     OW24957   1.210   2.590   3.533  0.1245 -0.7252  0.3822
 7839SOL    HW124958   1.191   2.567   3.624  0.8067 -1.3406  0.3866
 7839SOL    HW224959   1.159   2.528   3.481 -1.8845  0.9187  0.2685
 7840SOL     OW24960   2.716   4.133   4.029  0.1892  0.0509  0.1671
 7840SOL    HW124961   2.790   4.088   3.988  1.0625  1.5061  0.1001
 7840SOL    HW224962   2.715   4.101   4.119  0.1693 -0.8439 -0.1393
 7841SOL     OW24963   3.371   7.497   8.616 -0.0858 -0.2256  0.0966
 7841SOL    HW124964   3.392   7.591   8.615  0.1675 -0.2818 -1.2052
 7841SOL    HW224965   3.372   7.473   8.709 -1.0518  1.2562  0.5309
 7842SOL     OW24966   6.469   7.641   9.835  0.3417 -0.3296  0.4664
 7842SOL    HW124967   6.519   7.617   9.757  1.1312  0.2834  0.7630
 7842SOL    HW224968   6.482   7.568   9.895 -0.0179 -0.6642  0.1408
 7843SOL     OW24969   1.267   1.905  11.616  0.0426 -0.0420 -0.3865
 7843SOL    HW124970   1.316   1.825  11.597  0.6145  0.5602 -1.5049
 7843SOL    HW224971   1.318   1.975  11.575 -0.2882  0.9481  0.8235
 7844SOL     OW24972   5.518   1.040   5.661  0.2627 -0.0846  0.0763
 7844SOL    HW124973   5.529   1.038   5.566 -1.1766  0.9283 -0.1390
 7844SOL    HW224974   5.475   0.957   5.682 -1.4456  0.6247 -0.4782
 7845SOL     OW24975   2.168   6.459   3.406 -0.3216 -0.0604  0.5187
 7845SOL    HW124976   2.164   6.378   3.457  0.7373 -0.3250  0.1911
 7845SOL    HW224977   2.189   6.527   3.470  0.8617 -0.3712  0.4684
 7846SOL     OW24978   4.649   0.893   4.642  0.5086 -0.1409 -0.0006
 7846SOL    HW124979   4.724   0.910   4.699  0.4763 -3.0875  1.1036
 7846SOL    HW224980   4.573   0.895   4.700  0.0094  0.3335 -0.6480
 7847SOL     OW24981   1.470   1.008   2.097  0.0163 -0.3384 -0.3412
 7847SOL    HW124982   1.393   1.023   2.041  0.8406 -0.2171 -1.4722
 7847SOL    HW224983   1.457   1.067   2.171 -0.7500  0.0357 -0.7574
 7848SOL     OW24984   5.559   2.877   5.047  0.1702  0.1835  0.1603
 7848SOL    HW124985   5.653   2.884   5.034 -0.0354  2.7045 -0.3754
 7848SOL    HW224986   5.525   2.965   5.030 -2.3242 -0.7187  0.0200
 7849SOL     OW24987   3.940   5.274   4.401  0.3665 -1.0665 -0.2547
 7849SOL    HW124988   3.868   5.211   4.393  0.4410 -1.2075  0.1289
 7849SOL    HW224989   3.959   5.301   4.311 -1.8524  0.9024 -0.2483
 7850SOL     OW24990   6.200   0.476   4.498  0.4930 -0.8490 -0.3482
 7850SOL    HW124991   6.286   0.446   4.469  1.1020  1.5399 -1.1712
 7850SOL    HW224992   6.170   0.535   4.430 -0.9993 -0.2136  0.7957
 7851SOL     OW24993   0.961   3.656   1.933  0.3031  0.2432 -0.0908
 7851SOL    HW124994   1.015   3.661   1.854 -0.2505 -1.9630 -0.6664
 7851SOL    HW224995   0.871   3.654   1.901 -0.0619  1.5529  0.7548
 7852SOL     OW24996   2.058   3.144   2.627  0.0697 -0.1256  0.2176
 7852SOL    HW124997   2.063   3.048   2.630 -2.4998 -0.3722 -0.3481
 7852SOL    HW224998   2.005   3.167   2.703 -2.1662  0.4689 -1.4231
 7853SOL     OW24999   2.854   1.648   0.971  0.0008 -0.1507  0.0544
 7853SOL    HW125000   2.934   1.625   0.924 -0.3648  0.6936 -1.0327
 7853SOL    HW225001   2.840   1.575   1.031  0.8311 -0.9759 -0.7060
 7854SOL     OW25002   7.365   4.480   6.075 -0.5302  0.0018 -0.4433
 7854SOL    HW125003   7.349   4.515   5.987 -0.6642  2.1599  0.3720
 7854SOL    HW225004   7.420   4.546   6.117  0.0592 -1.2965  0.8981
 7855SOL     OW25005   1.033   6.818   0.970  0.8293 -0.8780  0.2422
 7855SOL    HW125006   1.077   6.750   0.919  2.2867 -0.9513  1.5185
 7855SOL    HW225007   1.013   6.886   0.906 -1.0393 -2.6091 -1.1580
 7856SOL     OW25008   7.160   7.656  10.198 -0.1228  0.3277 -0.1347
 7856SOL    HW125009   7.114   7.693  10.122  0.0501 -0.8347 -0.8194
 7856SOL    HW225010   7.246   7.632  10.166 -0.3719 -1.0733  0.1613
 7857SOL     OW25011   4.738   6.345   8.896 -0.1928 -0.5072 -0.2872
 7857SOL    HW125012   4.768   6.414   8.838  0.7565 -0.1560  0.5880
 7857SOL    HW225013   4.802   6.344   8.968 -1.9918 -0.0836  1.3989
 7858SOL     OW25014   4.690   0.162   3.320 -0.5311  0.1646 -0.1223
 7858SOL    HW125015   4.620   0.215   3.281 -0.0481  0.9587  0.0576
 7858SOL    HW225016   4.665   0.072   3.301 -0.4957  0.5043 -1.9872
 7859SOL     OW25017   2.067   5.173   4.154  0.1923  0.1329 -0.2666
 7859SOL    HW125018   2.062   5.152   4.247 -0.6912  0.4010 -0.2448
 7859SOL    HW225019   2.007   5.246   4.142  0.7441  0.4951 -0.9460
 7860SOL     OW25020   0.704   2.363   5.744  0.0559  0.0866 -0.0756
 7860SOL    HW125021   0.717   2.291   5.682  0.2309  0.3403 -0.3363
 7860SOL    HW225022   0.788   2.369   5.791 -0.1603 -0.2705  0.3649
 7861SOL     OW25023   6.856   1.931   7.002 -0.1150 -0.3829 -0.1646
 7861SOL    HW125024   6.867   1.850   7.052 -0.8030 -0.1302  0.4239
 7861SOL    HW225025   6.825   1.903   6.916  1.7091 -0.8677 -0.7029
 7862SOL     OW25026   6.384   5.003   8.881 -0.6130 -0.5733 -0.0542
 7862SOL    HW125027   6.297   5.032   8.910 -1.5267 -2.1643 -1.0505
 7862SOL    HW225028   6.381   4.908   8.887  1.2326 -0.6428  0.2798
 7863SOL     OW25029   4.776   4.262  11.171 -0.1188 -0.0219 -0.3394
 7863SOL    HW125030   4.797   4.340  11.223 -0.4250  0.1576 -0.4841
 7863SOL    HW225031   4.817   4.278  11.086 -1.8713  0.9116 -1.0645
 7864SOL     OW25032   0.722   0.596  11.561  0.2019 -0.2308 -0.4748
 7864SOL    HW125033   0.788   0.595  11.630 -0.8709  1.2835  0.6289
 7864SOL    HW225034   0.764   0.640  11.488  1.0441 -1.0245 -0.4885
 7865SOL     OW25035   0.054   0.771   2.601  0.1267  0.1101  0.1629
 7865SOL    HW125036   0.045   0.711   2.527  1.7896 -0.7802  0.6381
 7865SOL    HW225037   0.005   0.728   2.672 -0.7037  0.5215 -0.1459
 7866SOL     OW25038   0.659   1.865   5.737 -0.1164  0.0907  0.3433
 7866SOL    HW125039   0.740   1.839   5.782 -1.0161 -0.3964  1.7313
 7866SOL    HW225040   0.594   1.872   5.807 -0.7434  2.8708 -0.3700
 7867SOL     OW25041   7.028   0.793   6.597 -0.6964 -0.0116 -0.4481
 7867SOL    HW125042   7.012   0.760   6.686  1.3257  0.5439  0.1574
 7867SOL    HW225043   6.982   0.877   6.594  0.2733  0.5746  0.5270
 7868SOL     OW25044   5.312   4.186   0.991 -0.2553 -0.3940 -0.1637
 7868SOL    HW125045   5.384   4.189   0.928 -1.0816  0.3366 -1.1121
 7868SOL    HW225046   5.355   4.173   1.075  1.0907  1.0759 -0.5646
 7869SOL     OW25047   7.592   1.268   6.340  0.0931 -0.0236 -0.1943
 7869SOL    HW125048   7.612   1.351   6.384  0.0860  0.7660 -1.5920
 7869SOL    HW225049   7.671   1.215   6.351  0.4640  0.5420 -0.0736
 7870SOL     OW25050   1.332   2.075   4.233 -0.2872 -0.2177 -0.3800
 7870SOL    HW125051   1.251   2.067   4.182  0.1205  0.1804 -1.1084
 7870SOL    HW225052   1.305   2.063   4.324 -1.4024  1.2904 -0.4755
 7871SOL     OW25053   2.351   6.147  11.218 -0.6677 -0.4348  0.5203
 7871SOL    HW125054   2.394   6.080  11.165  1.3494  1.2237 -0.0765
 7871SOL    HW225055   2.402   6.151  11.298 -0.4722  0.7012  0.3477
 7872SOL     OW25056   6.486   7.537   8.682 -0.1427 -0.3592 -0.2968
 7872SOL    HW125057   6.455   7.457   8.639  1.4165 -0.6062 -1.0402
 7872SOL    HW225058   6.502   7.598   8.610 -0.9003  0.4759  0.2315
 7873SOL     OW25059   1.607   0.938   4.458 -0.4537 -0.2274  0.1233
 7873SOL    HW125060   1.595   0.870   4.392 -2.6635  0.8306 -0.6813
 7873SOL    HW225061   1.606   1.020   4.408 -1.8867  0.5903  1.3885
 7874SOL     OW25062   7.686   6.521   5.457 -0.2306  0.3113  0.0720
 7874SOL    HW125063   7.663   6.428   5.454 -1.3638  0.5846 -0.4233
 7874SOL    HW225064   7.613   6.565   5.412  1.0124  1.3155 -1.0363
 7875SOL     OW25065   5.953   5.913  11.872  0.0972 -0.0979  0.2195
 7875SOL    HW125066   5.901   5.841  11.906 -0.0276 -0.4733 -0.7412
 7875SOL    HW225067   6.000   5.946  11.949 -1.2675  0.0331  1.0447
 7876SOL     OW25068   4.002   1.664   6.753 -0.0256 -0.7687  0.1654
 7876SOL    HW125069   3.984   1.669   6.847 -1.7552 -1.3038 -0.0968
 7876SOL    HW225070   4.086   1.619   6.747  0.1624 -0.6175  1.4581
 7877SOL     OW25071   1.881   4.670  11.813  0.3722 -0.0764  0.0458
 7877SOL    HW125072   1.904   4.731  11.883  1.1211 -0.9594  0.6161
 7877SOL    HW225073   1.803   4.625  11.845  0.8962 -0.7039  0.4945
 7878SOL     OW25074   4.214   4.211   1.440 -0.5230 -0.0871 -0.0848
 7878SOL    HW125075   4.174   4.174   1.361  1.4848 -0.4449 -0.9961
 7878SOL    HW225076   4.286   4.152   1.460 -2.0728 -1.0691  3.1778
 7879SOL     OW25077   6.680   0.491   1.835  0.0730  0.1019  0.1128
 7879SOL    HW125078   6.607   0.539   1.795  0.0396  0.2070  0.2978
 7879SOL    HW225079   6.709   0.547   1.906 -1.3388 -1.0970  1.7080
 7880SOL     OW25080   1.613   1.758   5.273 -0.3455  0.2388 -0.3838
 7880SOL    HW125081   1.708   1.760   5.280 -0.3516  1.0983 -0.4323
 7880SOL    HW225082   1.582   1.768   5.364 -0.3832  3.3464 -0.6469
 7881SOL     OW25083   4.526   0.908   0.019  0.1052 -0.2388  0.3061
 7881SOL    HW125084   4.546   0.967   0.092  0.1780  0.1157  0.0069
 7881SOL    HW225085   4.442   0.868   0.043 -0.2640  0.4650  0.2267
 7882SOL     OW25086   6.032   4.051   3.159  0.1554  0.0774 -0.3255
 7882SOL    HW125087   5.961   4.114   3.146 -0.5181 -0.7423 -0.6622
 7882SOL    HW225088   6.042   4.046   3.254 -0.4297  0.0009 -0.2615
 7883SOL     OW25089   2.833   5.793   0.463 -0.1017  0.5181 -0.4883
 7883SOL    HW125090   2.861   5.764   0.377  1.0135  2.2059 -0.7207
 7883SOL    HW225091   2.890   5.866   0.485 -1.5476  1.3114  0.8953
 7884SOL     OW25092   5.523   6.365   2.494  0.2270  0.0143 -0.2474
 7884SOL    HW125093   5.451   6.370   2.430 -3.3336  1.5884  3.4425
 7884SOL    HW225094   5.570   6.447   2.481 -0.4853  0.3482 -0.8533
 7885SOL     OW25095   3.615   2.255   4.614  0.3111 -0.1516  0.0325
 7885SOL    HW125096   3.547   2.255   4.681  0.7123 -1.7147  0.4991
 7885SOL    HW225097   3.569   2.237   4.532 -0.2502  2.2695 -0.2582
 7886SOL     OW25098   0.514   3.092   4.807  0.2979  0.3134  0.1344
 7886SOL    HW125099   0.484   3.113   4.896  0.0673  0.8197 -0.0548
 7886SOL    HW225100   0.433   3.079   4.758  0.4355 -0.5057  0.1195
 7887SOL     OW25101   5.640   2.678  11.486 -0.0042  0.3747  0.0615
 7887SOL    HW125102   5.718   2.624  11.500 -0.1587  0.2236  0.3567
 7887SOL    HW225103   5.671   2.768  11.495  0.8305  0.5340 -3.0894
 7888SOL     OW25104   1.767   7.406   7.895 -0.1801  0.2540 -0.5199
 7888SOL    HW125105   1.704   7.462   7.940 -0.2085 -0.3483  0.1903
 7888SOL    HW225106   1.814   7.466   7.837 -1.8860  0.6113 -1.6291
 7889SOL     OW25107   0.577   6.084   5.620  0.2262 -0.3734 -0.0058
 7889SOL    HW125108   0.489   6.087   5.658 -1.2819  0.1198 -3.2167
 7889SOL    HW225109   0.578   6.155   5.556  2.4697 -1.2746 -1.0717
 7890SOL     OW25110   4.696   3.158  11.096 -0.0644  0.2462  0.3037
 7890SOL    HW125111   4.637   3.094  11.057  0.3443 -0.9028  1.5079
 7890SOL    HW225112   4.738   3.201  11.021 -2.6536  1.3920 -0.6018
 7891SOL     OW25113   0.739   2.030   3.594  0.4947 -0.4378  0.0182
 7891SOL    HW125114   0.826   2.049   3.630 -0.0152  2.5799 -0.1597
 7891SOL    HW225115   0.754   2.017   3.501  0.4278  4.5544 -0.9420
 7892SOL     OW25116   0.197   2.244  11.687  0.2454 -0.1002 -0.4001
 7892SOL    HW125117   0.117   2.291  11.660  0.3944  0.7436  0.5556
 7892SOL    HW225118   0.252   2.312  11.726  0.8879 -0.9124  0.1311
 7893SOL     OW25119   4.605   2.510  11.373 -0.4218 -0.1397  0.3384
 7893SOL    HW125120   4.662   2.531  11.300  0.9270  0.3293  1.4884
 7893SOL    HW225121   4.663   2.470  11.438 -1.5542 -0.3847  1.2327
 7894SOL     OW25122   0.210   6.512   9.312  0.1916  0.1128 -0.3923
 7894SOL    HW125123   0.126   6.551   9.290  0.2580 -0.7473 -2.3341
 7894SOL    HW225124   0.275   6.567   9.268  0.4326 -0.8071 -1.2248
 7895SOL     OW25125   6.961   4.282   2.076 -0.4760  0.0070 -0.6565
 7895SOL    HW125126   7.020   4.284   2.001 -0.4669  0.8110 -0.6389
 7895SOL    HW225127   6.949   4.189   2.095  2.4287 -0.2059  0.6419
 7896SOL     OW25128   5.016   1.114   3.687 -0.1490 -0.7707  0.0334
 7896SOL    HW125129   5.048   1.141   3.773 -1.5416 -0.5051  0.4981
 7896SOL    HW225130   5.093   1.080   3.642  1.0981  1.3031  0.4850
 7897SOL     OW25131   7.114   3.363   3.534  0.6067  0.1165 -1.0077
 7897SOL    HW125132   7.078   3.437   3.583  2.7083  0.0391  0.8050
 7897SOL    HW225133   7.120   3.394   3.444 -2.2121  0.7009 -1.0905
 7898SOL     OW25134   2.367   6.769   1.732 -0.6974 -0.0426  0.4713
 7898SOL    HW125135   2.322   6.727   1.805 -0.0890  1.1775  1.5847
 7898SOL    HW225136   2.369   6.862   1.755 -1.6509  0.5950 -1.7184
 7899SOL     OW25137   7.120   1.682   8.732 -0.1817 -0.1538  0.0419
 7899SOL    HW125138   7.200   1.629   8.740  0.7445  1.2797  0.6052
 7899SOL    HW225139   7.114   1.728   8.816 -1.8623 -0.5708  0.1792
 7900SOL     OW25140   0.781   7.305   6.063 -0.1691  0.2990  0.2689
 7900SOL    HW125141   0.702   7.337   6.108 -0.4575  1.0029 -0.6996
 7900SOL    HW225142   0.752   7.227   6.016 -0.3896  0.7659 -0.3822
 7901SOL     OW25143   5.827   4.598   6.414 -0.4093 -0.0563 -0.0241
 7901SOL    HW125144   5.754   4.649   6.379 -0.5252 -0.4623 -0.3867
 7901SOL    HW225145   5.905   4.648   6.391 -0.1976 -1.7102 -3.5842
 7902SOL     OW25146   1.884   4.261   8.436  0.3280 -0.2586 -0.2367
 7902SOL    HW125147   1.963   4.224   8.476  0.0852 -1.4030 -0.7586
 7902SOL    HW225148   1.819   4.191   8.444 -0.4215  0.4073 -0.4463
 7903SOL     OW25149   5.690   4.385   0.139 -0.4219 -0.2060  0.0696
 7903SOL    HW125150   5.646   4.304   0.112 -0.7420  0.0132 -0.0895
 7903SOL    HW225151   5.783   4.370   0.122 -0.3972 -0.7932  0.7021
 7904SOL     OW25152   3.782   5.365  10.415  0.1493  0.6907  0.0374
 7904SOL    HW125153   3.704   5.409  10.382  0.3550  0.4127 -0.8622
 7904SOL    HW225154   3.829   5.338  10.336 -0.2721 -1.6700  0.5282
 7905SOL     OW25155   2.113   7.429   7.712 -0.1053 -0.2708 -0.0794
 7905SOL    HW125156   2.193   7.448   7.663 -0.1868  0.4392  0.0450
 7905SOL    HW225157   2.042   7.444   7.648 -0.1446 -0.9021 -0.1917
 7906SOL     OW25158   7.561   2.827   6.899  0.1142  0.3916  0.2551
 7906SOL    HW125159   7.481   2.869   6.931 -0.0858  0.4949 -0.3664
 7906SOL    HW225160   7.631   2.886   6.926 -0.0156  0.3061  0.7985
 7907SOL     OW25161   2.632   6.139  11.862  0.1495  0.2224 -0.1260
 7907SOL    HW125162   2.539   6.154  11.879  0.3685  1.6723 -0.1342
 7907SOL    HW225163   2.669   6.226  11.851  1.6853 -0.2980  0.7024
 7908SOL     OW25164   2.616   5.208   3.045  0.0574  0.0215 -0.0407
 7908SOL    HW125165   2.703   5.237   3.073 -0.3594  1.3388 -0.0318
 7908SOL    HW225166   2.581   5.282   2.995 -0.5601 -0.9855 -1.1575
 7909SOL     OW25167   0.523   6.122   0.987  0.1859 -0.0264 -0.1446
 7909SOL    HW125168   0.486   6.150   1.071  0.0041  0.2373 -0.3139
 7909SOL    HW225169   0.524   6.202   0.934  2.0319  0.2542  0.2294
 7910SOL     OW25170   3.150   6.796   1.233 -0.6629  0.2193  0.1161
 7910SOL    HW125171   3.102   6.878   1.221  1.4575  2.0244  2.7454
 7910SOL    HW225172   3.241   6.819   1.214 -0.2547 -2.0997 -1.0407
 7911SOL     OW25173   2.284   6.416   4.617 -0.2140  0.2714 -0.4266
 7911SOL    HW125174   2.305   6.502   4.654 -1.7292 -0.1077  1.4400
 7911SOL    HW225175   2.202   6.430   4.570 -0.4536 -0.1628 -0.1338
 7912SOL     OW25176   1.513   0.162   6.750  0.3464  0.3849  0.1995
 7912SOL    HW125177   1.536   0.086   6.803 -0.0229  0.6200  0.7057
 7912SOL    HW225178   1.451   0.128   6.685  0.7725  0.1034 -0.0606
 7913SOL     OW25179   2.689   2.339   5.218 -0.0224 -0.5683  0.1541
 7913SOL    HW125180   2.684   2.338   5.123  1.2183 -1.3239  0.0805
 7913SOL    HW225181   2.632   2.268   5.246 -1.9771  0.8902  0.1078
 7914SOL     OW25182   7.480   4.472   8.028  0.5977 -0.2233  0.5034
 7914SOL    HW125183   7.564   4.445   8.065  0.7201  0.1209  0.4738
 7914SOL    HW225184   7.471   4.420   7.948  1.4622  0.8035 -0.2787
 7915SOL     OW25185   4.949   1.224   7.490  0.6140  0.0455  0.0362
 7915SOL    HW125186   5.033   1.265   7.511  0.1085  0.6933  0.8701
 7915SOL    HW225187   4.949   1.142   7.539  0.2359  0.6614  1.1171
 7916SOL     OW25188   7.476   6.390   7.871 -0.1290  0.7715  0.1030
 7916SOL    HW125189   7.490   6.484   7.876  0.4996  0.7790 -1.3100
 7916SOL    HW225190   7.414   6.378   7.799 -0.1967  0.1082  0.2631
 7917SOL     OW25191   4.423   6.027   9.621 -0.2947  0.6711 -0.0299
 7917SOL    HW125192   4.443   5.938   9.593  0.6501  1.4885 -2.2385
 7917SOL    HW225193   4.482   6.044   9.694  1.3924  0.3039 -1.2477
 7918SOL     OW25194   7.435   4.028  11.749  0.4688  0.4220  0.3959
 7918SOL    HW125195   7.497   3.958  11.768  0.2831  0.0337 -0.3533
 7918SOL    HW225196   7.434   4.033  11.653 -0.8028  0.2687  0.3806
 7919SOL     OW25197   6.109   3.622   1.111  0.3715  0.3470  0.2231
 7919SOL    HW125198   6.018   3.617   1.142  0.9753 -0.1367  2.0422
 7919SOL    HW225199   6.103   3.667   1.027 -1.6729 -0.7200 -0.2648
 7920SOL     OW25200   7.915   0.059  11.640  0.4302 -0.1024  0.4825
 7920SOL    HW125201   7.965   0.119  11.696  0.9346  0.1780 -0.2479
 7920SOL    HW225202   7.963  -0.024  11.646  0.7751  0.0633  0.0818
 7921SOL     OW25203   5.296   0.484   4.823 -0.0760  0.6844  0.0984
 7921SOL    HW125204   5.345   0.439   4.755 -0.6010  0.6112 -0.2374
 7921SOL    HW225205   5.277   0.570   4.786 -2.2502 -0.0806 -0.7769
 7922SOL     OW25206   0.616   6.396   9.580 -0.0863  0.2496  0.8486
 7922SOL    HW125207   0.629   6.455   9.654 -0.5913 -0.7100  1.7323
 7922SOL    HW225208   0.614   6.309   9.619 -0.2507 -0.2832 -0.3141
 7923SOL     OW25209   5.765   1.519   2.389 -0.0940  0.0918 -0.0651
 7923SOL    HW125210   5.832   1.587   2.396  1.3310 -1.0849 -1.2404
 7923SOL    HW225211   5.747   1.513   2.295 -0.8370 -0.5525  0.1073
 7924SOL     OW25212   4.622   3.559   3.595  0.0892 -0.3061  0.6747
 7924SOL    HW125213   4.672   3.534   3.517 -0.0260  1.3036  0.0419
 7924SOL    HW225214   4.536   3.583   3.561 -0.0730  0.0712  1.3357
 7925SOL     OW25215   4.735   2.895   3.150 -0.1658  0.2006 -0.0357
 7925SOL    HW125216   4.758   2.987   3.140 -0.8760  0.2988 -1.0287
 7925SOL    HW225217   4.693   2.889   3.235 -4.3082  1.8066 -1.6795
 7926SOL     OW25218   7.028   1.436   2.165 -0.0657  0.0711  0.3850
 7926SOL    HW125219   7.033   1.345   2.136  0.5108 -0.2704  1.4726
 7926SOL    HW225220   7.118   1.469   2.156 -0.6631  1.2692 -2.1244
 7927SOL     OW25221   7.519   2.056   5.092 -0.7420  0.0479 -0.5245
 7927SOL    HW125222   7.498   2.140   5.053 -2.3261  0.5360  1.2259
 7927SOL    HW225223   7.614   2.059   5.107 -0.5259  0.8498 -1.8698
 7928SOL     OW25224   1.312   0.510   3.859 -0.0391 -0.3896  0.2127
 7928SOL    HW125225   1.308   0.545   3.948  0.2269 -1.2163  0.5640
 7928SOL    HW225226   1.225   0.473   3.845  0.6095 -2.3850  1.0581
 7929SOL     OW25227   2.148   5.515   7.723 -0.1857 -0.6720  0.2116
 7929SOL    HW125228   2.082   5.582   7.705 -0.0326 -0.0333  1.8237
 7929SOL    HW225229   2.113   5.467   7.798  0.7941 -0.8534  0.5734
 7930SOL     OW25230   5.962   7.772   7.373  0.7606  0.5569 -0.2756
 7930SOL    HW125231   5.934   7.680   7.364  2.7058 -0.0135 -1.0956
 7930SOL    HW225232   6.022   7.785   7.299  3.3128  1.3770  1.7986
 7931SOL     OW25233   0.327   6.555  11.596 -0.4444  0.5530 -0.2837
 7931SOL    HW125234   0.328   6.459  11.600  0.0504  0.5654 -0.0574
 7931SOL    HW225235   0.239   6.579  11.627 -0.2970  0.2039  0.4247
 7932SOL     OW25236   7.377   2.339   7.006 -0.0880 -0.0109  0.7349
 7932SOL    HW125237   7.462   2.317   6.967 -1.1310  0.3368 -1.9755
 7932SOL    HW225238   7.365   2.432   6.986 -1.7725 -0.4288 -0.4028
 7933SOL     OW25239   1.177   3.538   3.819 -0.2955  0.4796  0.6757
 7933SOL    HW125240   1.215   3.521   3.733  0.7617  3.5075  0.4130
 7933SOL    HW225241   1.247   3.580   3.869 -1.6771  1.2253  2.0851
 7934SOL     OW25242   1.090   4.836  11.751  0.2750 -0.7181  0.5334
 7934SOL    HW125243   0.998   4.834  11.778  0.8823 -2.5612  2.8054
 7934SOL    HW225244   1.091   4.788  11.668 -0.9605  0.5071 -0.2329
 7935SOL     OW25245   6.808   7.238   7.559  0.3587  0.6526 -0.1317
 7935SOL    HW125246   6.721   7.272   7.581  0.9297  1.6811  0.6929
 7935SOL    HW225247   6.823   7.266   7.469  0.1885  1.2662  0.0255
 7936SOL     OW25248   2.176   0.732   2.163  0.1519 -0.1471  0.6820
 7936SOL    HW125249   2.145   0.744   2.074  2.0901  1.4475  0.1340
 7936SOL    HW225250   2.271   0.740   2.156  0.3812 -0.4393  2.8289
 7937SOL     OW25251   3.236   0.091  11.926 -0.2221 -0.2893  0.5238
 7937SOL    HW125252   3.246   0.003  11.889 -0.1550  0.6931 -1.9609
 7937SOL    HW225253   3.321   0.133  11.911  0.1749 -0.1357  2.8204
 7938SOL     OW25254   3.959   5.191   2.590 -0.3082 -0.3354  0.3442
 7938SOL    HW125255   3.892   5.159   2.651 -1.3659  0.5597 -0.3153
 7938SOL    HW225256   4.038   5.198   2.643 -0.6741 -1.5756  1.1064
 7939SOL     OW25257   7.646   7.689   7.591  0.3152 -0.1741 -0.3195
 7939SOL    HW125258   7.556   7.654   7.586 -0.4428  1.5796  0.4972
 7939SOL    HW225259   7.652   7.748   7.516 -0.1560  1.6966  1.0365
 7940SOL     OW25260   1.465   5.086   8.183  0.1008 -0.5874 -0.2579
 7940SOL    HW125261   1.519   5.155   8.221  0.4460 -0.1488 -1.4941
 7940SOL    HW225262   1.375   5.115   8.196  0.2449  0.0863 -0.7411
 7941SOL     OW25263   6.634   7.562  10.688 -0.2997 -0.1170 -0.4996
 7941SOL    HW125264   6.560   7.556  10.748 -0.2214 -0.2110 -0.4122
 7941SOL    HW225265   6.682   7.640  10.715 -1.4976  1.1585 -1.8469
 7942SOL     OW25266   2.656   5.785   3.423 -0.1395  0.3558 -0.1379
 7942SOL    HW125267   2.719   5.714   3.409  0.7081  1.3268 -1.4562
 7942SOL    HW225268   2.608   5.759   3.503 -0.9320 -2.4478 -1.3881
 7943SOL     OW25269   2.246   2.470   3.508  0.0688 -0.0081 -0.1117
 7943SOL    HW125270   2.267   2.418   3.431 -0.0308  2.0964 -1.6195
 7943SOL    HW225271   2.186   2.414   3.558 -0.1242 -1.2926 -1.6824
 7944SOL     OW25272   1.972   1.244  12.097 -0.1796  0.2133  0.7006
 7944SOL    HW125273   1.910   1.255  12.170 -2.1084 -0.1770 -0.8112
 7944SOL    HW225274   2.026   1.323  12.101 -0.9995  0.7589  1.8472
 7945SOL     OW25275   0.856   6.812   2.291  0.3842  0.2415 -0.0577
 7945SOL    HW125276   0.778   6.772   2.253  0.7447 -1.4840  0.9064
 7945SOL    HW225277   0.926   6.750   2.272  0.6814 -0.4592  2.8404
 7946SOL     OW25278   4.533   7.761   1.556 -0.4411 -0.1114 -0.1089
 7946SOL    HW125279   4.597   7.788   1.490  0.7072 -1.4031  0.4502
 7946SOL    HW225280   4.537   7.666   1.557 -2.6667 -0.2691 -0.3071
 7947SOL     OW25281   0.794   1.050   3.094 -0.1955  0.5366  0.4446
 7947SOL    HW125282   0.801   1.106   3.171 -1.0812  0.5511  0.5316
 7947SOL    HW225283   0.832   0.967   3.121 -2.3460 -0.1454  1.6262
 7948SOL     OW25284   7.743   0.040  11.071  0.4403  0.3258  0.3823
 7948SOL    HW125285   7.661  -0.006  11.055 -0.4641  2.0638 -0.2268
 7948SOL    HW225286   7.753   0.039  11.167 -0.5234  0.4550  0.4923
 7949SOL     OW25287   7.803   1.067   4.107  0.0346  0.1249 -0.1020
 7949SOL    HW125288   7.838   1.132   4.168 -0.0360 -2.6690  3.1933
 7949SOL    HW225289   7.718   1.102   4.080  1.4864  2.9854 -1.4322
 7950SOL     OW25290   3.913   6.851  12.096 -0.0006  0.0505  0.2620
 7950SOL    HW125291   3.992   6.881  12.142  1.2737 -0.2275 -1.6343
 7950SOL    HW225292   3.848   6.841  12.165  1.4901  0.7203  1.8452
 7951SOL     OW25293   2.633   2.529   9.451 -0.3400  0.4500  0.0291
 7951SOL    HW125294   2.727   2.529   9.433 -0.1875  0.2910  0.8155
 7951SOL    HW225295   2.595   2.486   9.375  0.2502  0.2368 -0.1561
 7952SOL     OW25296   6.510   3.504   6.274  0.6416  0.4075 -0.5961
 7952SOL    HW125297   6.595   3.460   6.280  0.4847  0.0313 -1.0777
 7952SOL    HW225298   6.527   3.579   6.216  0.4819 -0.0951 -1.3130
 7953SOL     OW25299   5.862   2.759  11.083  0.2463  0.0341  0.5141
 7953SOL    HW125300   5.907   2.675  11.096 -1.2454 -0.9427 -0.3502
 7953SOL    HW225301   5.770   2.736  11.070 -0.0199  1.6780 -1.0185
 7954SOL     OW25302   5.323   1.297   2.196  0.5761  0.4836 -0.0452
 7954SOL    HW125303   5.320   1.340   2.281  0.6632  0.1789  0.1119
 7954SOL    HW225304   5.408   1.322   2.159  1.7206 -1.5138  1.0841
 7955SOL     OW25305   4.893   6.179   6.244  0.2067 -0.7513  0.6824
 7955SOL    HW125306   4.904   6.086   6.264 -0.8784 -0.8492  0.9171
 7955SOL    HW225307   4.798   6.192   6.244  0.3116  0.1627 -0.2655
 7956SOL     OW25308   0.675   0.347   7.099 -0.0516 -0.0773 -0.0211
 7956SOL    HW125309   0.746   0.351   7.162  0.7056  0.4594 -0.8869
 7956SOL    HW225310   0.633   0.433   7.106 -0.1352 -0.1145 -0.0632
 7957SOL     OW25311   1.143   4.794   2.804  0.0221  0.2146  0.0564
 7957SOL    HW125312   1.237   4.802   2.784  0.5624 -1.0851  1.8277
 7957SOL    HW225313   1.136   4.824   2.895 -1.1419 -0.4327  0.1942
 7958SOL     OW25314   0.696   3.539   2.657  0.2229 -0.4161  0.2155
 7958SOL    HW125315   0.701   3.445   2.638  0.7031 -0.2985 -0.2881
 7958SOL    HW225316   0.788   3.565   2.668  0.0708 -0.0687  0.6772
 7959SOL     OW25317   3.344   2.027  12.146 -0.0461 -0.0620  0.3972
 7959SOL    HW125318   3.289   1.950  12.131 -0.2357 -0.5254  2.9586
 7959SOL    HW225319   3.434   1.996  12.134 -0.1603 -0.4993  0.6359
 7960SOL     OW25320   2.250   1.386  11.968  0.5638 -0.3099  0.2333
 7960SOL    HW125321   2.331   1.414  12.010 -0.0624  0.5164  0.9187
 7960SOL    HW225322   2.182   1.442  12.006 -0.2689 -0.6909 -0.6492
 7961SOL     OW25323   6.980   5.038   9.868  0.2471  0.3833  0.0450
 7961SOL    HW125324   6.999   5.005   9.780 -0.7507  0.9076 -0.3792
 7961SOL    HW225325   6.933   4.966   9.910 -0.0038  0.4390 -0.1361
 7962SOL     OW25326   6.007   5.329   9.635  0.2192  0.5285  0.5212
 7962SOL    HW125327   6.031   5.408   9.587 -0.4723  0.7643  0.5629
 7962SOL    HW225328   5.997   5.262   9.566  0.0451  0.6642  0.4147
 7963SOL     OW25329   0.981   3.293   0.322 -0.3103  0.6277 -0.5114
 7963SOL    HW125330   0.906   3.275   0.377 -0.6755  0.0566 -1.1851
 7963SOL    HW225331   1.057   3.286   0.380 -0.4729 -2.2749 -0.5321
 7964SOL     OW25332   7.276   6.459   6.950  0.3818 -0.6074  0.4715
 7964SOL    HW125333   7.231   6.447   6.867 -0.3645  0.4668  0.7030
 7964SOL    HW225334   7.326   6.378   6.962  0.1612 -0.9537 -0.7988
 7965SOL     OW25335   6.859   3.482  10.276  0.2345 -0.2423  0.4784
 7965SOL    HW125336   6.791   3.523  10.330  0.5154  0.5312  0.2499
 7965SOL    HW225337   6.907   3.427  10.338  0.2472  0.2548  0.9175
 7966SOL     OW25338   5.653   1.618   9.931  0.1918 -0.0168  0.0705
 7966SOL    HW125339   5.642   1.690   9.993 -0.7860 -0.8134  0.8518
 7966SOL    HW225340   5.615   1.651   9.850  1.4228  1.0102 -0.1333
 7967SOL     OW25341   1.563   3.522   1.834  0.3020 -0.0401 -0.2859
 7967SOL    HW125342   1.648   3.566   1.845  0.4543 -0.3688 -0.1304
 7967SOL    HW225343   1.585   3.438   1.794 -0.0931  0.4793 -1.6310
 7968SOL     OW25344   6.800   2.530  11.396 -0.6448  0.5373 -0.3832
 7968SOL    HW125345   6.758   2.453  11.356 -0.5602  0.5010 -0.4030
 7968SOL    HW225346   6.892   2.507  11.399  0.0668  2.1670 -4.0964
 7969SOL     OW25347   2.637   3.123  10.672  0.6496  0.1336  0.3554
 7969SOL    HW125348   2.542   3.111  10.666  0.1525  3.5934 -1.7531
 7969SOL    HW225349   2.667   3.052  10.729 -2.8070 -2.6591 -0.9511
 7970SOL     OW25350   2.437   2.890   1.592  0.0666 -0.1931  0.0258
 7970SOL    HW125351   2.492   2.815   1.572  0.0268  0.1742 -1.6078
 7970SOL    HW225352   2.433   2.892   1.687  0.9636 -1.6000  0.1234
 7971SOL     OW25353   2.091   5.788  11.853  0.0292 -0.1549 -0.0956
 7971SOL    HW125354   2.050   5.854  11.798 -0.1183 -0.1084  0.0704
 7971SOL    HW225355   2.042   5.708  11.836 -0.6712  0.0811  0.7177
 7972SOL     OW25356   1.666   2.264   0.179 -1.0746 -0.0327 -0.5202
 7972SOL    HW125357   1.615   2.232   0.254 -1.2763 -0.4366 -0.8231
 7972SOL    HW225358   1.709   2.343   0.212 -0.9255 -0.3655  0.1139
 7973SOL     OW25359   5.358   3.446   6.103  0.1036 -0.3844 -0.7540
 7973SOL    HW125360   5.287   3.496   6.144  1.2701 -0.0003  0.8587
 7973SOL    HW225361   5.384   3.383   6.169  1.7168 -0.0882 -1.0764
 7974SOL     OW25362   5.044   7.773   6.022  0.1863  0.6187 -0.0707
 7974SOL    HW125363   5.135   7.779   5.993 -0.4293  2.3515 -1.8839
 7974SOL    HW225364   5.017   7.685   5.998  0.8892  0.6883 -1.2081
 7975SOL     OW25365   0.828   2.949  11.000 -0.6180  0.1210 -0.3064
 7975SOL    HW125366   0.908   2.960  11.051  0.7268 -2.5196 -1.6781
 7975SOL    HW225367   0.761   2.927  11.064  0.3348 -0.1491  0.6095
 7976SOL     OW25368   3.230   4.236   8.955  0.5268  0.6534  0.4095
 7976SOL    HW125369   3.217   4.195   8.870  1.2532 -0.9833  1.0516
 7976SOL    HW225370   3.201   4.327   8.943 -0.4146  0.1611 -1.2634
 7977SOL     OW25371   3.010   0.273   3.076 -0.0567  0.5495  0.9242
 7977SOL    HW125372   3.093   0.295   3.032  0.0828  0.5678  1.1923
 7977SOL    HW225373   3.035   0.260   3.168  0.0389 -1.7294  0.6130
 7978SOL     OW25374   1.865   0.044   4.715 -0.2427 -0.0579 -0.5780
 7978SOL    HW125375   1.905   0.129   4.697  0.6585 -0.1918  0.6344
 7978SOL    HW225376   1.771   0.059   4.704 -0.1196  1.1508 -0.2099
 7979SOL     OW25377   2.728   6.375   7.634 -0.3012 -0.5740  0.3199
 7979SOL    HW125378   2.776   6.418   7.563 -2.4201 -0.1456 -0.9761
 7979SOL    HW225379   2.747   6.282   7.624  1.6907 -0.2939  1.0554
 7980SOL     OW25380   1.661   6.603   4.257  0.2404 -0.2062 -0.1361
 7980SOL    HW125381   1.625   6.684   4.221 -1.7986  0.1533  2.3975
 7980SOL    HW225382   1.727   6.632   4.321 -0.0874 -0.5487  0.3657
 7981SOL     OW25383   0.629   4.011   7.106 -0.4711 -0.3094  0.2473
 7981SOL    HW125384   0.556   3.985   7.162 -0.4162  0.5790  0.7547
 7981SOL    HW225385   0.592   4.015   7.018 -1.8808  2.9596  0.8203
 7982SOL     OW25386   7.426   5.642   3.448 -0.0322 -0.8288  0.3396
 7982SOL    HW125387   7.413   5.626   3.541 -2.8160 -2.0553 -0.1413
 7982SOL    HW225388   7.419   5.737   3.439  0.1006 -0.7117  1.3539
 7983SOL     OW25389   2.267   7.221   0.726  0.0101 -0.6171 -0.8900
 7983SOL    HW125390   2.311   7.288   0.778  1.4151 -1.4125 -0.9879
 7983SOL    HW225391   2.282   7.139   0.774 -1.0482 -0.9797 -1.1420
 7984SOL     OW25392   6.377   0.926  12.212  0.8400 -0.0011  0.2690
 7984SOL    HW125393   6.430   1.005  12.199  0.3576 -0.0539 -2.9156
 7984SOL    HW225394   6.287   0.959  12.221  0.7443 -0.1325 -0.1754
 7985SOL     OW25395   4.707   7.402   1.073  0.1125  0.1840 -0.2950
 7985SOL    HW125396   4.642   7.400   1.143  0.9866  0.1007  0.5288
 7985SOL    HW225397   4.748   7.315   1.075 -1.7064 -0.8520 -2.7314
 7986SOL     OW25398   6.258   1.032   4.408  0.5833 -0.5869  0.1117
 7986SOL    HW125399   6.289   0.950   4.369  1.5266  0.2072 -0.8666
 7986SOL    HW225400   6.318   1.046   4.482 -0.1965 -1.2570  0.9022
 7987SOL     OW25401   3.945   7.627   3.093 -0.8026 -0.2119  0.0951
 7987SOL    HW125402   3.972   7.639   3.184 -2.1236 -1.2514  0.6522
 7987SOL    HW225403   4.021   7.655   3.042  1.3147 -2.7886  1.5754
 7988SOL     OW25404   2.245   1.592   1.647  0.3370  0.8403  0.7820
 7988SOL    HW125405   2.192   1.655   1.598  0.7869  0.0715 -0.7699
 7988SOL    HW225406   2.330   1.636   1.657  1.3192 -0.1789 -2.0699
 7989SOL     OW25407   7.200   1.644  12.374 -0.1527 -0.3132 -0.4006
 7989SOL    HW125408   7.262   1.596  12.430  0.6167 -1.1166 -1.8947
 7989SOL    HW225409   7.215   1.736  12.396  1.2196 -0.5246 -0.3520
 7990SOL     OW25410   2.845   4.253   2.900  0.2070 -0.0108  0.5598
 7990SOL    HW125411   2.876   4.339   2.929  0.8671 -0.1445  0.2818
 7990SOL    HW225412   2.925   4.206   2.875 -0.1712 -0.6061  0.4434
 7991SOL     OW25413   6.719   1.862  11.582 -0.4357  0.3972  0.2109
 7991SOL    HW125414   6.674   1.819  11.509 -0.1865 -0.0104  0.2976
 7991SOL    HW225415   6.707   1.803  11.656 -1.0954  1.0354  0.6317
 7992SOL     OW25416   5.067   7.182   3.763 -0.6828  0.1417 -0.3618
 7992SOL    HW125417   5.009   7.242   3.809 -2.0249  1.1644 -3.2083
 7992SOL    HW225418   5.019   7.099   3.761 -1.3466  0.5341 -1.2656
 7993SOL     OW25419   2.022   3.532  10.909 -0.0775 -0.1846 -0.4523
 7993SOL    HW125420   2.076   3.611  10.909 -0.7996  0.3237 -0.1089
 7993SOL    HW225421   1.987   3.526  10.820 -0.1804  0.0041 -0.4268
 7994SOL     OW25422   6.835   5.884   6.498 -0.5787  0.2393 -0.5614
 7994SOL    HW125423   6.890   5.942   6.445 -0.6887  0.8717  0.0014
 7994SOL    HW225424   6.896   5.832   6.549 -0.4790 -0.0493 -0.9772
 7995SOL     OW25425   1.389   0.850   0.918  0.2961 -0.4015  0.5952
 7995SOL    HW125426   1.327   0.840   0.847  0.6339  1.4100 -0.0086
 7995SOL    HW225427   1.352   0.920   0.973  0.3149 -1.3879  1.9024
 7996SOL     OW25428   4.291   2.120   9.109 -0.1557 -0.3955 -0.6368
 7996SOL    HW125429   4.350   2.170   9.053 -0.4696 -0.5620 -1.1139
 7996SOL    HW225430   4.350   2.066   9.162  0.2065  0.6709  0.0922
 7997SOL     OW25431   3.163   6.615   1.831  0.1230  0.4380 -0.8120
 7997SOL    HW125432   3.091   6.554   1.848 -1.4830  2.7605  1.4903
 7997SOL    HW225433   3.157   6.633   1.737 -1.9842  0.1424 -0.7820
 7998SOL     OW25434   2.926   0.957   4.336 -0.6741  0.1161 -0.4695
 7998SOL    HW125435   2.901   1.049   4.335  2.1060  0.9879  0.6577
 7998SOL    HW225436   2.965   0.944   4.422  1.9259 -1.1993 -1.7268
 7999SOL     OW25437   3.506   1.143   1.391 -0.0629  0.0534 -0.7001
 7999SOL    HW125438   3.449   1.220   1.384  0.8003  0.7219 -0.6052
 7999SOL    HW225439   3.517   1.114   1.300  0.8963  1.0316 -0.9213
 8000SOL     OW25440   4.695   0.999   0.241  0.2701  0.1744 -0.0373
 8000SOL    HW125441   4.681   1.071   0.303  0.8406 -0.7857  1.2565
 8000SOL    HW225442   4.657   0.922   0.285 -1.0298 -0.2118 -1.7127
 8001SOL     OW25443   4.785   2.189   9.607  0.0011  0.4567  0.6483
 8001SOL    HW125444   4.826   2.255   9.663 -0.6720  0.7248  0.8349
 8001SOL    HW225445   4.711   2.234   9.567 -0.7139 -0.2939  1.0904
 8002SOL     OW25446   4.760   7.054  10.894 -0.2153 -0.4195  0.2911
 8002SOL    HW125447   4.785   7.145  10.912 -1.2176  0.2505 -1.4553
 8002SOL    HW225448   4.698   7.032  10.964  1.4351 -0.4343  1.8013
 8003SOL     OW25449   2.998   0.137   5.727 -0.0436  0.1702 -0.0876
 8003SOL    HW125450   3.018   0.169   5.815  2.4856  0.0636 -0.5612
 8003SOL    HW225451   2.988   0.043   5.737 -1.4190  0.3353  0.3142
 8004SOL     OW25452   2.884   2.158   6.714  0.3518  0.5621  0.0288
 8004SOL    HW125453   2.961   2.103   6.702 -0.3966 -0.8126  1.3338
 8004SOL    HW225454   2.882   2.214   6.636  0.8979 -1.5376 -1.5536
 8005SOL     OW25455   3.020   2.636  12.075  0.2326 -0.0259  0.1054
 8005SOL    HW125456   3.100   2.596  12.109 -0.4813 -0.6843  1.0855
 8005SOL    HW225457   2.954   2.567  12.082 -0.6986  0.8709  0.4937
 8006SOL     OW25458   6.330   3.372   6.116 -0.7048 -0.1881  0.1711
 8006SOL    HW125459   6.393   3.399   6.183 -0.4359 -0.3025 -0.0371
 8006SOL    HW225460   6.305   3.453   6.072  0.0353 -0.2595 -0.3947
 8007SOL     OW25461   5.847   5.400   8.181  0.2267  0.1728  0.4579
 8007SOL    HW125462   5.806   5.486   8.166  0.3920 -0.1359 -2.4827
 8007SOL    HW225463   5.936   5.421   8.208 -0.3787  0.8740  2.0348
 8008SOL     OW25464   6.051   2.155   1.938 -0.3133  0.0558 -0.3508
 8008SOL    HW125465   5.990   2.149   2.012  1.3391 -2.3581  0.9467
 8008SOL    HW225466   6.034   2.077   1.886  2.0326 -1.1064  0.4600
 8009SOL     OW25467   0.332   4.050   1.795  0.1879  0.0735 -0.0139
 8009SOL    HW125468   0.374   4.098   1.866  1.4268 -1.6072  0.4579
 8009SOL    HW225469   0.344   4.105   1.718 -0.1084  1.3677  0.8478
 8010SOL     OW25470   6.425   4.294   1.121  0.4640  0.0336  0.2008
 8010SOL    HW125471   6.337   4.257   1.123  0.6558 -0.4128  0.6724
 8010SOL    HW225472   6.459   4.273   1.034 -0.5426  1.7791 -0.6773
 8011SOL     OW25473   1.247   1.270   4.314 -0.3057  0.2563 -0.0544
 8011SOL    HW125474   1.268   1.357   4.349 -2.4298  0.5373  0.6706
 8011SOL    HW225475   1.290   1.210   4.374  0.4528  0.7774 -0.0523
 8012SOL     OW25476   5.332   7.077   1.520 -0.5573  0.3386 -0.3754
 8012SOL    HW125477   5.394   7.022   1.569 -0.6950  0.9428  0.4867
 8012SOL    HW225478   5.360   7.166   1.538 -2.4459  0.6920  1.1070
 8013SOL     OW25479   7.004   5.824  11.053 -0.3181  0.1612  0.1902
 8013SOL    HW125480   6.955   5.872  11.119 -0.1458 -0.2887  0.6580
 8013SOL    HW225481   7.096   5.847  11.070 -0.2884  0.1860 -0.0068
 8014SOL     OW25482   6.602   3.751   1.976  0.3357  0.0215 -0.1187
 8014SOL    HW125483   6.661   3.703   2.034  0.5017  0.4047  0.0309
 8014SOL    HW225484   6.591   3.693   1.900 -1.2936 -1.2999  1.0436
 8015SOL     OW25485   0.296   6.462  10.529  0.1646  0.3800 -0.5502
 8015SOL    HW125486   0.257   6.428  10.610  2.7114  0.4704  0.8101
 8015SOL    HW225487   0.356   6.393  10.500  1.1893  1.3914 -0.9224
 8016SOL     OW25488   1.476   5.265   9.971  0.4751  0.3210 -0.0122
 8016SOL    HW125489   1.476   5.187  10.026  0.7169 -0.1663 -0.6901
 8016SOL    HW225490   1.394   5.310   9.993  0.9668  0.5975  1.3661
 8017SOL     OW25491   4.893   2.747   0.149  0.3784  0.0580  0.5309
 8017SOL    HW125492   4.901   2.662   0.105 -3.0822 -1.0087  1.6773
 8017SOL    HW225493   4.978   2.760   0.191  1.3269 -2.3376 -0.4774
 8018SOL     OW25494   6.513   5.627  11.213  0.7534 -0.5072 -0.0026
 8018SOL    HW125495   6.555   5.702  11.172  2.5035 -0.9948  0.8288
 8018SOL    HW225496   6.569   5.553  11.191  0.4902 -1.1420  1.3546
 8019SOL     OW25497   7.477   1.183   2.553  0.1492  0.5913 -0.2997
 8019SOL    HW125498   7.510   1.094   2.537  0.4448  0.1962  2.0885
 8019SOL    HW225499   7.411   1.197   2.485  0.5285 -1.2128 -1.0972
 8020SOL     OW25500   2.906   3.190   3.674 -0.1338  0.1762 -0.1864
 8020SOL    HW125501   2.812   3.173   3.673 -0.1104 -0.0817  0.9078
 8020SOL    HW225502   2.938   3.153   3.592 -0.8753 -0.3794 -0.2358
 8021SOL     OW25503   5.281   1.948   6.794  0.0162  0.1456 -0.5982
 8021SOL    HW125504   5.291   2.038   6.762  0.3302 -0.0628 -1.0918
 8021SOL    HW225505   5.371   1.917   6.805 -0.0919 -0.2016 -0.7018
 8022SOL     OW25506   5.145   5.407   1.919 -0.1249 -0.0647  0.6514
 8022SOL    HW125507   5.197   5.386   1.841  1.9754 -1.0794  2.2240
 8022SOL    HW225508   5.078   5.467   1.887 -0.3648 -1.6839 -2.2218
 8023SOL     OW25509   2.085   5.877   1.491 -0.4500 -0.2349  0.1584
 8023SOL    HW125510   2.117   5.965   1.471  0.1842 -0.0139  1.9869
 8023SOL    HW225511   2.004   5.868   1.440 -0.1739  1.1514 -0.5492
 8024SOL     OW25512   7.609   2.550   4.065 -0.2401 -0.4983 -0.8223
 8024SOL    HW125513   7.607   2.645   4.056 -1.0472 -0.6662 -3.3427
 8024SOL    HW225514   7.691   2.532   4.110  0.5235  1.3524 -1.3738
 8025SOL     OW25515   4.519   0.309   1.977 -0.5275  0.8111 -0.3307
 8025SOL    HW125516   4.520   0.314   2.073 -0.3011  0.8575 -0.3338
 8025SOL    HW225517   4.579   0.379   1.949 -0.6547  0.8495 -0.5082
 8026SOL     OW25518   2.872   2.568  10.436  0.4747 -0.1161 -0.4520
 8026SOL    HW125519   2.795   2.594  10.488  0.2681  0.7385 -1.1573
 8026SOL    HW225520   2.875   2.632  10.364  2.6696  0.7561  0.3355
 8027SOL     OW25521   4.621   0.988   8.571 -0.3876 -0.2261  0.3731
 8027SOL    HW125522   4.679   0.953   8.638 -0.5690 -1.0327  0.1104
 8027SOL    HW225523   4.582   1.066   8.612  0.2156 -0.1687  0.8535
 8028SOL     OW25524   5.343   7.455   4.461  0.1094 -0.9567  0.2666
 8028SOL    HW125525   5.292   7.527   4.425 -1.7085 -2.1393  0.3791
 8028SOL    HW225526   5.401   7.497   4.525 -1.6598  0.2816  1.1225
 8029SOL     OW25527   2.280   2.295   6.055 -0.7092 -0.4484 -0.3505
 8029SOL    HW125528   2.372   2.309   6.034 -1.1840  1.4890 -1.3737
 8029SOL    HW225529   2.247   2.241   5.983 -0.7241  0.2436 -0.8757
 8030SOL     OW25530   5.247   2.112   6.558  0.3666  0.0105 -0.7182
 8030SOL    HW125531   5.230   2.197   6.517 -0.4616  0.1385 -0.1427
 8030SOL    HW225532   5.166   2.063   6.547  1.0552 -0.9757 -1.6248
 8031SOL     OW25533   1.410   2.911  10.531 -0.1174  0.4532 -0.5092
 8031SOL    HW125534   1.477   2.856  10.574 -1.3618 -0.4163  0.4088
 8031SOL    HW225535   1.391   2.980  10.595  0.1003  0.8605 -0.8822
 8032SOL     OW25536   3.641   7.075   7.107  0.0420 -0.9639  0.0380
 8032SOL    HW125537   3.718   7.089   7.162  0.2838 -0.6375 -0.3820
 8032SOL    HW225538   3.666   7.004   7.047  0.7326  0.4664 -1.4173
 8033SOL     OW25539   2.775   2.867   0.520  0.6555  0.4877  0.1684
 8033SOL    HW125540   2.742   2.780   0.542 -0.6242  1.5380  2.8182
 8033SOL    HW225541   2.862   2.871   0.561  0.1452  0.8846  1.2513
 8034SOL     OW25542   7.163   7.093   9.036 -0.3566  0.0082  0.4009
 8034SOL    HW125543   7.224   7.035   8.990 -1.4365 -0.1172 -0.9523
 8034SOL    HW225544   7.203   7.179   9.031 -0.1667 -0.1113 -0.2679
 8035SOL     OW25545   7.096   6.841  10.365 -0.0569  0.2265  0.1721
 8035SOL    HW125546   7.027   6.903  10.389 -1.6015 -0.8794 -1.1346
 8035SOL    HW225547   7.148   6.887  10.299 -0.5791  0.5004 -0.0526
 8036SOL     OW25548   2.395   6.074   1.771  0.0328  0.1866  0.4059
 8036SOL    HW125549   2.362   6.119   1.849 -1.9504 -0.4298  0.0001
 8036SOL    HW225550   2.422   6.144   1.712  0.0441  0.7154  1.0340
 8037SOL     OW25551   0.269   4.821   6.960  0.2335 -0.0919 -0.6101
 8037SOL    HW125552   0.313   4.756   7.015  0.4752  1.7445  1.4896
 8037SOL    HW225553   0.338   4.883   6.936 -0.7639  1.8850  1.2953
 8038SOL     OW25554   3.394   7.364  10.066 -0.5982  0.6119  0.4392
 8038SOL    HW125555   3.362   7.428  10.002  0.1824 -0.7330 -1.3877
 8038SOL    HW225556   3.337   7.288  10.056 -0.3340  0.2947  1.2067
 8039SOL     OW25557   0.456   4.784   4.597  0.4618  0.2073 -0.1964
 8039SOL    HW125558   0.459   4.826   4.683 -0.4485 -0.3862  0.1439
 8039SOL    HW225559   0.420   4.850   4.538 -0.2049  0.1742  0.1695
 8040SOL     OW25560   5.541   2.816   0.612 -0.6145 -0.3322  0.8579
 8040SOL    HW125561   5.472   2.758   0.643 -0.1224 -1.1929  0.3655
 8040SOL    HW225562   5.585   2.767   0.542  1.3738 -0.3835  2.0461
 8041SOL     OW25563   2.682   7.870   4.717  0.0923 -0.3643  0.6383
 8041SOL    HW125564   2.604   7.915   4.749 -0.1542 -0.5807  0.3451
 8041SOL    HW225565   2.732   7.939   4.672  1.4582  0.4493  3.1872
 8042SOL     OW25566   3.933   2.767  12.215 -0.1668  0.3820 -0.2137
 8042SOL    HW125567   3.968   2.855  12.201 -0.8231  0.8741  1.0742
 8042SOL    HW225568   3.877   2.776  12.293  0.7645 -1.4477  0.7135
 8043SOL     OW25569   7.722   5.451   2.434  0.2042  0.7760 -0.3153
 8043SOL    HW125570   7.638   5.496   2.447 -0.6847 -0.9309  0.1964
 8043SOL    HW225571   7.709   5.397   2.356  0.2040 -0.7817  0.7153
 8044SOL     OW25572   1.186   4.167   5.083  1.1819  0.3877  0.3205
 8044SOL    HW125573   1.183   4.186   5.177 -1.0016  2.2986 -0.0615
 8044SOL    HW225574   1.271   4.201   5.055  2.6851 -1.8094  1.8097
 8045SOL     OW25575   0.329   5.914   4.454 -0.1440 -0.0590 -0.2870
 8045SOL    HW125576   0.388   5.989   4.453  0.7393 -0.6963  0.8841
 8045SOL    HW225577   0.304   5.902   4.362  2.3549 -0.3475 -1.0023
 8046SOL     OW25578   2.641   1.737   0.800 -0.2829  0.4726 -0.2599
 8046SOL    HW125579   2.587   1.780   0.866 -0.5204 -0.2292  0.0087
 8046SOL    HW225580   2.706   1.687   0.850  0.8680  1.6051 -0.5826
 8047SOL     OW25581   7.547   0.673  11.661  0.0021 -0.0933  0.4009
 8047SOL    HW125582   7.552   0.609  11.590 -2.8946  2.4944 -2.4784
 8047SOL    HW225583   7.470   0.646  11.711  0.2358 -0.2220  0.6913
 8048SOL     OW25584   3.228   2.041   0.488  0.0575 -0.1917 -0.4154
 8048SOL    HW125585   3.321   2.036   0.464 -0.5496 -1.4996 -2.8454
 8048SOL    HW225586   3.214   1.967   0.547  0.9566  1.3798  1.9595
 8049SOL     OW25587   6.351   1.848   6.892 -0.0312 -0.0168  0.3718
 8049SOL    HW125588   6.337   1.862   6.986  0.3903  0.3664  0.3790
 8049SOL    HW225589   6.432   1.894   6.872  0.0941 -0.4292 -0.1042
 8050SOL     OW25590   5.022   1.886   7.755  0.3919  0.3323  0.0221
 8050SOL    HW125591   4.934   1.920   7.744  0.9030  1.4779 -0.7276
 8050SOL    HW225592   5.011   1.807   7.808 -1.1637 -0.0378 -0.8010
 8051SOL     OW25593   4.584   1.532   0.226 -0.3353 -0.1738  0.4868
 8051SOL    HW125594   4.676   1.515   0.247 -0.2935 -0.4914  0.0537
 8051SOL    HW225595   4.579   1.525   0.131 -0.7995 -0.1117  0.5040
 8052SOL     OW25596   5.173   2.676   6.837  0.0018 -0.1105 -0.3628
 8052SOL    HW125597   5.133   2.590   6.844 -1.6062  0.4989 -1.6372
 8052SOL    HW225598   5.156   2.704   6.747  0.2346  1.6568  0.1005
 8053SOL     OW25599   1.292   5.181  10.503 -0.2374  0.2327  0.2939
 8053SOL    HW125600   1.229   5.123  10.461 -0.3079  0.0469  0.6571
 8053SOL    HW225601   1.238   5.245  10.549 -0.2154 -1.3441  2.6354
 8054SOL     OW25602   2.004   7.830   8.838  0.6663 -0.4299 -0.1597
 8054SOL    HW125603   2.071   7.831   8.771  2.1851 -0.5123  1.2895
 8054SOL    HW225604   2.029   7.758   8.896  1.3112  1.6518  2.3120
 8055SOL     OW25605   4.413   0.987   5.632 -0.1404  0.0284  0.1170
 8055SOL    HW125606   4.445   0.999   5.722 -0.9087 -0.9531  0.5425
 8055SOL    HW225607   4.362   1.066   5.615  1.1319  0.8535  0.0273
 8056SOL     OW25608   6.320   6.803   7.756 -0.2377 -0.6237  0.5376
 8056SOL    HW125609   6.265   6.857   7.812  0.2961  0.3181  0.1845
 8056SOL    HW225610   6.367   6.866   7.701 -0.5746 -1.5068 -0.7999
 8057SOL     OW25611   5.724   7.928  12.218 -0.5591 -0.1990 -0.4537
 8057SOL    HW125612   5.779   7.888  12.150 -0.4713 -0.0559 -0.4658
 8057SOL    HW225613   5.709   7.857  12.280 -1.8458 -0.7574 -1.3516
 8058SOL     OW25614   3.881   0.753   3.484  0.8606  0.3546 -0.0252
 8058SOL    HW125615   3.965   0.721   3.516  1.1425  1.2953  0.2313
 8058SOL    HW225616   3.851   0.687   3.423  1.8534  0.0663 -0.2106
 8059SOL     OW25617   5.919   3.964   4.355 -0.6149  0.2521  0.0304
 8059SOL    HW125618   5.887   4.029   4.293 -1.0135  0.8062  0.8074
 8059SOL    HW225619   5.999   4.002   4.391  0.0275 -0.3961 -0.6793
 8060SOL     OW25620   6.866   3.101   1.939 -0.0141  0.2575  0.2895
 8060SOL    HW125621   6.809   3.157   1.992 -0.1572  0.1252  0.2757
 8060SOL    HW225622   6.927   3.162   1.898 -0.0954  0.3924  0.3656
 8061SOL     OW25623   4.090   3.882   6.579  0.1968  0.1935 -0.6178
 8061SOL    HW125624   4.013   3.937   6.565 -0.8666 -1.5043 -1.8692
 8061SOL    HW225625   4.116   3.854   6.491 -0.7160 -3.0390 -0.0002
 8062SOL     OW25626   3.584   4.867   0.908  0.7893  0.0092 -0.0684
 8062SOL    HW125627   3.659   4.924   0.919 -0.6985  1.9622  0.6047
 8062SOL    HW225628   3.526   4.914   0.849 -0.4908 -0.8075  0.4761
 8063SOL     OW25629   1.161   2.120  12.395 -0.0975 -0.0178  0.2765
 8063SOL    HW125630   1.216   2.063  12.341 -0.3059 -0.0678  0.1126
 8063SOL    HW225631   1.180   2.093  12.485  1.4480  1.1609  0.3269
 8064SOL     OW25632   0.085   1.037   9.844 -0.0992 -0.0407  0.3940
 8064SOL    HW125633   0.173   1.004   9.826 -0.3300 -0.8810  0.7332
 8064SOL    HW225634   0.065   1.004   9.931 -0.8311 -0.0509  0.2298
 8065SOL     OW25635   3.944   7.393   4.282 -0.3311 -0.2503  0.4774
 8065SOL    HW125636   3.914   7.395   4.372  1.0977  2.0618  1.0024
 8065SOL    HW225637   4.027   7.346   4.285  0.5119  1.2011  0.7028
 8066SOL     OW25638   6.501   0.927   7.576 -0.6634  0.3353  0.1815
 8066SOL    HW125639   6.532   0.917   7.666  1.1416  0.2602 -0.4001
 8066SOL    HW225640   6.493   0.837   7.543 -3.5537  0.2361  0.9044
 8067SOL     OW25641   5.439   5.855   0.035 -0.8189  0.3308 -0.5068
 8067SOL    HW125642   5.483   5.777   0.068  1.5716  1.9167  0.3980
 8067SOL    HW225643   5.352   5.853   0.075 -1.1117 -2.2033 -1.1502
 8068SOL     OW25644   3.752   1.441   8.073  0.5406  0.8687 -0.5814
 8068SOL    HW125645   3.798   1.367   8.112  0.4250  1.2217  0.2496
 8068SOL    HW225646   3.752   1.509   8.141 -0.0943  1.3286 -1.0178
 8069SOL     OW25647   5.819   5.105   6.565  0.4239 -0.4879  0.1542
 8069SOL    HW125648   5.806   5.053   6.486  1.9044 -0.1602 -0.3363
 8069SOL    HW225649   5.847   5.042   6.631 -0.7222 -0.7466  0.4162
 8070SOL     OW25650   4.750   0.280   4.735  0.6312  0.1274  0.1919
 8070SOL    HW125651   4.837   0.321   4.744  0.4620  0.4209  0.5560
 8070SOL    HW225652   4.707   0.299   4.819 -0.0374  0.5866 -0.2454
 8071SOL     OW25653   6.275   1.863   1.366 -0.3038 -0.0266 -0.0121
 8071SOL    HW125654   6.340   1.913   1.415  0.6134 -1.6176  0.4986
 8071SOL    HW225655   6.291   1.886   1.275 -1.7105  2.5983  0.3007
 8072SOL     OW25656   4.940   4.051   2.306 -0.6376 -0.1850 -0.6898
 8072SOL    HW125657   4.972   4.078   2.393 -1.9949  0.6231 -0.4150
 8072SOL    HW225658   4.976   3.963   2.295  0.1540 -0.0333  0.3739
 8073SOL     OW25659   6.815   6.986   2.155  0.0395  0.3344 -0.0088
 8073SOL    HW125660   6.744   6.927   2.178 -1.1570  0.9682 -1.8082
 8073SOL    HW225661   6.814   7.053   2.223  0.6673 -1.0554  1.4153
 8074SOL     OW25662   4.417   1.035  11.827  0.0883 -0.0804  0.0535
 8074SOL    HW125663   4.392   0.957  11.777 -0.2737  0.1690 -0.1633
 8074SOL    HW225664   4.504   1.015  11.861 -0.3902 -0.9780  0.8268
 8075SOL     OW25665   1.531   2.467   3.935 -0.1499 -0.1276 -0.0318
 8075SOL    HW125666   1.558   2.396   3.877 -0.3615  0.6755 -1.1604
 8075SOL    HW225667   1.455   2.432   3.983 -0.3222 -0.6256 -0.6554
 8076SOL     OW25668   7.288   0.886   2.561  0.5784 -0.1531  0.3656
 8076SOL    HW125669   7.276   0.793   2.580 -0.3257  0.0367  0.7555
 8076SOL    HW225670   7.382   0.895   2.544  0.4964 -1.3487 -0.8715
 8077SOL     OW25671   7.849   4.556   9.697 -0.4078  0.1418  0.8623
 8077SOL    HW125672   7.829   4.559   9.604  0.5260 -0.4399  0.6242
 8077SOL    HW225673   7.864   4.463   9.715 -3.3227 -0.1541  2.2289
 8078SOL     OW25674   7.801   3.718  11.393  0.0768  0.1630  0.0167
 8078SOL    HW125675   7.894   3.712  11.417  0.3082  0.1549 -0.8523
 8078SOL    HW225676   7.802   3.732  11.299 -0.8187 -0.1297 -0.0390
 8079SOL     OW25677   2.430   1.929   2.091 -0.1706 -0.1549 -0.0302
 8079SOL    HW125678   2.479   2.005   2.058  0.3195 -0.5958 -0.3273
 8079SOL    HW225679   2.487   1.854   2.074 -1.2145 -0.7637 -0.9435
 8080SOL     OW25680   0.127   6.685   6.668 -0.5529  0.1534  0.0542
 8080SOL    HW125681   0.103   6.777   6.678 -1.2626 -0.0338  0.1540
 8080SOL    HW225682   0.052   6.646   6.623  0.2571 -0.1343 -1.1092
 8081SOL     OW25683   1.504   4.949  11.777 -0.3406 -0.1516  0.0794
 8081SOL    HW125684   1.458   4.981  11.700 -0.6339 -0.7496  0.0015
 8081SOL    HW225685   1.592   4.928  11.746 -0.1982  0.4053  0.0951
 8082SOL     OW25686   1.868   4.568   9.632 -0.1429  0.0626 -0.4029
 8082SOL    HW125687   1.807   4.552   9.704 -0.1778  0.0332 -0.4389
 8082SOL    HW225688   1.900   4.481   9.608 -0.3718  0.0383 -0.6325
 8083SOL     OW25689   6.032   2.421  11.365  0.2923 -0.5162 -0.1734
 8083SOL    HW125690   5.948   2.444  11.404 -0.1066 -2.5818  0.3120
 8083SOL    HW225691   6.023   2.445  11.273 -1.0680 -1.1952 -0.2552
 8084SOL     OW25692   4.148   2.461   1.803 -0.0198  0.2043  0.0622
 8084SOL    HW125693   4.184   2.381   1.764  0.4803  0.6560 -0.4287
 8084SOL    HW225694   4.186   2.464   1.890  0.4840  0.2496 -0.1566
 8085SOL     OW25695   0.954   5.549   4.741  0.0451  0.5700 -0.0822
 8085SOL    HW125696   0.990   5.530   4.655  1.2837  1.1614  0.2928
 8085SOL    HW225697   0.890   5.479   4.755 -0.1268  0.4237 -1.4384
 8086SOL     OW25698   4.516   1.220   8.679  0.1615  0.7359  0.3009
 8086SOL    HW125699   4.451   1.231   8.610 -0.7049 -0.6126  0.8655
 8086SOL    HW225700   4.488   1.279   8.748 -0.6405 -0.0341  0.6503
 8087SOL     OW25701   7.315   3.028  11.600  0.2948  0.2882  0.2111
 8087SOL    HW125702   7.283   3.051  11.513  0.3024 -1.4179 -0.2837
 8087SOL    HW225703   7.265   2.950  11.624 -0.3180  1.2186  2.1254
 8088SOL     OW25704   0.750   1.024   7.125 -0.6559 -0.3010  0.4330
 8088SOL    HW125705   0.735   1.105   7.174 -0.4253  0.6808 -1.0535
 8088SOL    HW225706   0.783   1.053   7.040 -2.0405 -1.8735 -0.7028
 8089SOL     OW25707   3.887   0.377   7.222 -0.0226  0.0694  0.2788
 8089SOL    HW125708   3.794   0.380   7.198  0.0505 -0.1787 -0.0430
 8089SOL    HW225709   3.913   0.469   7.230 -0.0380  0.1624 -0.6568
 8090SOL     OW25710   1.699   5.159   4.582 -0.3685 -0.0213  0.3416
 8090SOL    HW125711   1.785   5.179   4.546 -1.1543  0.4348 -1.4236
 8090SOL    HW225712   1.639   5.175   4.509 -2.0055  0.1830  1.6802
 8091SOL     OW25713   7.546   3.300   3.403 -0.1009 -0.4857 -0.1504
 8091SOL    HW125714   7.616   3.346   3.449  0.2201 -3.1605  2.2849
 8091SOL    HW225715   7.589   3.225   3.363 -1.2708 -1.0350 -0.4240
 8092SOL     OW25716   0.411   1.484  12.009  0.2028  0.2458 -0.6004
 8092SOL    HW125717   0.371   1.551  12.064 -2.0487 -0.8735 -0.7423
 8092SOL    HW225718   0.387   1.401  12.051  0.8147 -0.5399 -1.7573
 8093SOL     OW25719   3.218   6.328   2.594 -0.4785  0.1713 -0.0559
 8093SOL    HW125720   3.230   6.419   2.568  2.3831  0.0460  0.5019
 8093SOL    HW225721   3.156   6.332   2.668  0.9842  1.9055  1.1478
 8094SOL     OW25722   7.283   6.644   5.361 -0.1835 -0.7963 -0.2133
 8094SOL    HW125723   7.265   6.607   5.274 -1.6204 -2.9081  0.9032
 8094SOL    HW225724   7.260   6.574   5.422  0.9798  0.5636  1.8911
 8095SOL     OW25725   6.582   6.064  10.561  0.0891 -0.1611 -0.4044
 8095SOL    HW125726   6.646   6.009  10.515  0.6244 -0.2447  0.4311
 8095SOL    HW225727   6.500   6.014  10.556  0.0401  0.0041 -1.5871
 8096SOL     OW25728   6.134   3.663   0.106  0.0076  0.0053 -0.1276
 8096SOL    HW125729   6.135   3.627   0.018  0.3814  1.6228 -0.8342
 8096SOL    HW225730   6.167   3.593   0.162  0.2991 -0.8622 -1.3601
 8097SOL     OW25731   3.527   2.380   2.131  0.3598 -0.0067 -0.3333
 8097SOL    HW125732   3.519   2.399   2.037  0.4772  1.3977 -0.0764
 8097SOL    HW225733   3.471   2.445   2.174  0.6026 -0.3951  0.5942
 8098SOL     OW25734   7.039   6.809  10.707  0.0294 -0.0356  0.1383
 8098SOL    HW125735   7.098   6.882  10.689  1.1161 -1.2368 -1.3075
 8098SOL    HW225736   7.017   6.819  10.800  1.8997  0.8597  0.5200
 8099SOL     OW25737   5.326   6.465   0.495  0.4860  0.1465  0.5830
 8099SOL    HW125738   5.314   6.391   0.434 -0.7759  0.5356  0.3234
 8099SOL    HW225739   5.354   6.537   0.440  0.4480  0.1977  0.6304
 8100SOL     OW25740   1.960   0.710   6.459 -0.0917  0.1188 -0.2207
 8100SOL    HW125741   2.005   0.786   6.495 -1.7092  1.2405 -0.5203
 8100SOL    HW225742   1.954   0.727   6.365 -0.9885 -0.0756 -0.2103
 8101SOL     OW25743   1.002   6.177   3.879 -0.0431  0.1017 -0.1823
 8101SOL    HW125744   1.096   6.172   3.891 -0.1249 -0.3893  0.2776
 8101SOL    HW225745   0.990   6.185   3.784  0.4682  0.4725 -0.2177
 8102SOL     OW25746   3.282   6.311   1.926 -0.2996  0.2595  0.2641
 8102SOL    HW125747   3.297   6.385   1.985 -1.1012  2.2426 -1.8519
 8102SOL    HW225748   3.337   6.330   1.850 -1.7074 -0.4572 -0.9962
 8103SOL     OW25749   4.743   3.503   9.275 -0.4213  0.4894 -0.1885
 8103SOL    HW125750   4.788   3.465   9.351 -0.4984 -1.9804 -1.2753
 8103SOL    HW225751   4.716   3.590   9.304  1.6558  0.5678  1.7788
 8104SOL     OW25752   7.651   0.634   7.354  0.5845  0.9221  0.0517
 8104SOL    HW125753   7.624   0.620   7.445  0.0887 -1.0661 -0.3590
 8104SOL    HW225754   7.667   0.546   7.320  0.5664  1.6103 -1.8470
 8105SOL     OW25755   1.473   7.816   2.184 -0.1581 -0.1789 -0.0315
 8105SOL    HW125756   1.523   7.738   2.158  3.2954  1.1563  1.9908
 8105SOL    HW225757   1.507   7.885   2.128 -1.6295  0.3370 -0.3186
 8106SOL     OW25758   3.958   6.620   4.399 -0.4822 -0.0264 -0.1031
 8106SOL    HW125759   3.865   6.641   4.409 -0.9499 -1.2095 -1.6041
 8106SOL    HW225760   3.990   6.612   4.489 -1.6879  0.9236  0.4436
 8107SOL     OW25761   6.639   7.796   5.267  0.4290  0.1749  0.3273
 8107SOL    HW125762   6.580   7.863   5.233 -0.4866 -0.9221 -0.3052
 8107SOL    HW225763   6.723   7.815   5.224  0.5925  1.7804  1.2815
 8108SOL     OW25764   3.762   2.709   3.628  0.6869  0.0533 -0.5573
 8108SOL    HW125765   3.746   2.671   3.542  0.5995 -0.7433 -0.2033
 8108SOL    HW225766   3.812   2.789   3.611  2.1308 -0.9506 -1.2609
 8109SOL     OW25767   4.513   2.180   1.801  0.2940 -0.1572 -0.0221
 8109SOL    HW125768   4.512   2.086   1.819  0.0607 -0.7740 -2.7216
 8109SOL    HW225769   4.436   2.195   1.747 -0.5848  1.9630  1.6865
 8110SOL     OW25770   6.421   5.000   5.512  0.2407 -0.4085  0.1656
 8110SOL    HW125771   6.356   5.044   5.457  0.7495 -0.0340 -0.1359
 8110SOL    HW225772   6.469   5.071   5.554  0.4086 -0.6860  0.4394
 8111SOL     OW25773   7.018   1.410   2.569 -0.1625 -0.5149 -0.0466
 8111SOL    HW125774   6.951   1.413   2.501 -1.1563 -2.5901  0.7441
 8111SOL    HW225775   6.985   1.345   2.632  0.0271  2.2343  3.1523
 8112SOL     OW25776   2.013   2.208   7.348 -0.2854 -0.4536 -0.5458
 8112SOL    HW125777   2.072   2.282   7.337 -0.7606 -0.1137 -0.8574
 8112SOL    HW225778   1.994   2.206   7.442  0.8935 -1.1024 -0.3009
 8113SOL     OW25779   7.154   1.218   8.225  0.4153  0.4821  0.4166
 8113SOL    HW125780   7.060   1.203   8.233  0.7920 -1.6292  1.5280
 8113SOL    HW225781   7.194   1.159   8.289  2.4852  1.7444  0.3763
 8114SOL     OW25782   4.580   0.846   7.844  0.1032 -0.1347 -0.0764
 8114SOL    HW125783   4.645   0.817   7.780 -1.3219 -0.3330 -1.4563
 8114SOL    HW225784   4.630   0.854   7.926  1.8576 -0.3021 -1.0860
 8115SOL     OW25785   7.400   0.237   9.268 -0.8746 -0.0880  0.2896
 8115SOL    HW125786   7.350   0.157   9.286 -0.0603 -0.4094  1.2377
 8115SOL    HW225787   7.341   0.291   9.216 -2.6201 -0.0220  2.2212
 8116SOL     OW25788   0.174   3.202   0.389 -0.1619  0.0758  0.2638
 8116SOL    HW125789   0.268   3.213   0.378 -0.2138  0.7047  0.4125
 8116SOL    HW225790   0.144   3.167   0.306  0.0430  0.9588 -0.1989
 8117SOL     OW25791   6.259   6.130  11.564  0.5011  0.6077 -0.1391
 8117SOL    HW125792   6.196   6.189  11.606  0.3727  0.7584 -0.5408
 8117SOL    HW225793   6.209   6.051  11.546  0.2932  0.8994 -0.8877
 8118SOL     OW25794   5.983   6.918   3.023  0.3628  0.4029 -0.3547
 8118SOL    HW125795   5.976   6.890   2.931 -1.0611  0.4918 -0.2909
 8118SOL    HW225796   5.938   6.849   3.073  0.9728  0.4464  0.2666
 8119SOL     OW25797   2.742   5.890   5.706  0.1220  0.1482 -0.7132
 8119SOL    HW125798   2.782   5.841   5.634 -1.5485  0.7315 -2.1047
 8119SOL    HW225799   2.787   5.857   5.785  1.0932 -1.4594 -1.8633
 8120SOL     OW25800   3.131   1.150   8.073 -0.3917 -0.5614  0.0561
 8120SOL    HW125801   3.200   1.194   8.122 -0.0353 -0.8640 -0.1745
 8120SOL    HW225802   3.152   1.057   8.079 -0.6905 -0.6437 -0.1448
 8121SOL     OW25803   7.849   4.166   5.755 -0.1911  0.2937  0.1664
 8121SOL    HW125804   7.788   4.208   5.694  0.2831 -0.4088 -0.8211
 8121SOL    HW225805   7.895   4.239   5.796 -1.6514  0.8328  0.9131
 8122SOL     OW25806   5.575   2.795   2.260 -0.2453 -0.0927  0.0484
 8122SOL    HW125807   5.556   2.823   2.349 -1.3385  0.3187 -0.3001
 8122SOL    HW225808   5.642   2.727   2.270 -0.8920 -0.5970  1.2379
 8123SOL     OW25809   7.424   5.593   8.453 -0.5433 -0.3057 -0.7510
 8123SOL    HW125810   7.459   5.507   8.477 -0.2459  0.1859  0.6713
 8123SOL    HW225811   7.371   5.619   8.528  0.1297  1.1541 -0.7521
 8124SOL     OW25812   7.833   2.934   8.914 -0.4813 -0.0510  0.6120
 8124SOL    HW125813   7.805   2.843   8.918  2.9415 -1.4164 -1.5621
 8124SOL    HW225814   7.912   2.936   8.969  0.3724  1.1580 -0.5975
 8125SOL     OW25815   1.431   5.235   0.898  0.0638  0.5571 -0.5367
 8125SOL    HW125816   1.408   5.300   0.964  0.3330 -0.0023  0.1145
 8125SOL    HW225817   1.361   5.169   0.903 -0.3749  0.9297 -1.4058
 8126SOL     OW25818   6.458   1.235   1.198  0.0398 -0.1149  0.1824
 8126SOL    HW125819   6.488   1.222   1.108 -0.4026  1.8440 -0.3068
 8126SOL    HW225820   6.375   1.187   1.202  0.6000 -1.1361 -0.0918
 8127SOL     OW25821   7.092   5.520   5.860 -0.0048 -0.0709  0.2850
 8127SOL    HW125822   7.040   5.512   5.940 -2.0959 -0.6781 -1.0526
 8127SOL    HW225823   7.147   5.442   5.859 -0.6850 -0.5590  0.6382
 8128SOL     OW25824   5.853   0.227   5.942  0.1713  0.1422  0.3685
 8128SOL    HW125825   5.775   0.283   5.949 -0.3735 -0.5006 -0.4165
 8128SOL    HW225826   5.926   0.288   5.949 -0.4103  0.9026  0.0410
 8129SOL     OW25827   1.060   3.261   5.431 -0.6330  0.7987 -0.3199
 8129SOL    HW125828   1.106   3.345   5.429 -0.1147  0.5744  1.4170
 8129SOL    HW225829   0.975   3.281   5.471 -0.4255  0.4498  0.2912
 8130SOL     OW25830   2.434   4.968   5.996 -0.8657 -0.4296 -0.3639
 8130SOL    HW125831   2.477   4.883   5.990  2.7577  1.2844 -1.1144
 8130SOL    HW225832   2.384   4.976   5.915 -0.7447 -1.5438 -0.5585
 8131SOL     OW25833   1.692   0.128   7.396  0.6118 -0.1372  0.5633
 8131SOL    HW125834   1.669   0.218   7.371  0.1202 -0.7642 -1.3993
 8131SOL    HW225835   1.608   0.083   7.404  0.8937 -1.3197 -2.2013
 8132SOL     OW25836   5.422   5.265   2.474  0.4290 -0.3411  0.9448
 8132SOL    HW125837   5.493   5.204   2.494  0.3449 -1.0583 -0.8351
 8132SOL    HW225838   5.354   5.244   2.538  0.7325 -1.5210  0.8880
 8133SOL     OW25839   1.009   5.203   6.562  0.5293 -0.2896  0.9810
 8133SOL    HW125840   1.074   5.235   6.624  1.7825  0.5128 -0.6716
 8133SOL    HW225841   1.059   5.154   6.498 -0.9022 -2.2860  1.2996
 8134SOL     OW25842   1.174   4.449   0.419 -0.0361  0.7475  0.2237
 8134SOL    HW125843   1.086   4.487   0.420 -0.1423  0.5278 -0.2211
 8134SOL    HW225844   1.216   4.482   0.498 -0.9942 -0.2913  1.1870
 8135SOL     OW25845   0.053   0.429   8.587  0.5821  0.2130  0.4568
 8135SOL    HW125846   0.040   0.462   8.499  1.2709 -2.3414 -0.6957
 8135SOL    HW225847  -0.021   0.370   8.602  1.3791 -0.7148  0.8755
 8136SOL     OW25848   2.880   2.125   4.094  0.0695  0.1682 -0.1369
 8136SOL    HW125849   2.847   2.180   4.023  0.0024 -0.6576 -0.7716
 8136SOL    HW225850   2.872   2.036   4.060 -1.5223 -0.3844  1.5455
 8137SOL     OW25851   0.672   1.564   3.049 -0.2384  0.1357 -0.2788
 8137SOL    HW125852   0.592   1.523   3.082 -0.3204  0.2877 -0.2860
 8137SOL    HW225853   0.674   1.542   2.956 -0.6347  0.7088 -0.4279
 8138SOL     OW25854   7.585   7.339   6.355  0.0845  0.4430 -0.0606
 8138SOL    HW125855   7.678   7.335   6.378  0.1847  1.3472 -0.2486
 8138SOL    HW225856   7.559   7.248   6.341  0.8894  0.1679  0.1921
 8139SOL     OW25857   2.236   1.538   3.234 -0.2694  0.0567  0.0106
 8139SOL    HW125858   2.286   1.532   3.152 -1.2236 -0.2585 -0.5554
 8139SOL    HW225859   2.283   1.604   3.285 -0.4773  1.3298 -1.3713
 8140SOL     OW25860   5.850   5.218   7.950  0.0247 -0.2727 -0.1656
 8140SOL    HW125861   5.777   5.162   7.978  0.5379 -0.7089  0.3145
 8140SOL    HW225862   5.887   5.251   8.032  0.1317  0.2536 -0.4237
 8141SOL     OW25863   3.136   4.491   8.913 -0.4452 -0.0174 -0.1302
 8141SOL    HW125864   3.055   4.523   8.873 -1.4698 -1.0519  1.0384
 8141SOL    HW225865   3.136   4.529   9.000  0.5074  0.2327 -0.2366
 8142SOL     OW25866   0.064   4.459   8.579  0.2977  0.2391  0.2954
 8142SOL    HW125867   0.103   4.459   8.667 -0.1497 -1.0077  0.5215
 8142SOL    HW225868   0.009   4.537   8.577  0.5715  0.4581  1.0074
 8143SOL     OW25869   1.458   1.191   6.723  0.4952 -0.2147  0.0182
 8143SOL    HW125870   1.552   1.209   6.733  0.5756 -0.0087 -1.0157
 8143SOL    HW225871   1.454   1.120   6.659 -0.0913  0.7881 -1.1054
 8144SOL     OW25872   3.729   5.389   3.667  0.4588 -0.4495  0.5560
 8144SOL    HW125873   3.761   5.462   3.615 -1.1644  0.4171  0.6875
 8144SOL    HW225874   3.736   5.313   3.609  2.3544 -0.2604  0.4852
 8145SOL     OW25875   7.730   2.445  12.306 -0.6342  0.1695 -0.0840
 8145SOL    HW125876   7.660   2.402  12.256 -0.9442  0.0388  0.4509
 8145SOL    HW225877   7.696   2.532  12.325 -0.8711 -0.0710  0.6197
 8146SOL     OW25878   5.673   4.803   3.698 -0.4749  0.5571  0.2227
 8146SOL    HW125879   5.617   4.730   3.673  0.1974  0.5654 -1.4324
 8146SOL    HW225880   5.741   4.764   3.753  0.3646 -0.2368 -1.3478
 8147SOL     OW25881   7.195   7.112   6.930  0.3015  0.9038  0.1936
 8147SOL    HW125882   7.153   7.129   6.846 -0.5728  2.9645  0.9852
 8147SOL    HW225883   7.197   7.016   6.937 -1.7186  0.7035 -1.1191
 8148SOL     OW25884   3.905   6.037   6.776  0.8428 -0.7833  0.1628
 8148SOL    HW125885   3.976   6.023   6.838 -0.1805  1.8291  2.1332
 8148SOL    HW225886   3.908   6.131   6.757 -1.5441 -0.7205 -0.3159
 8149SOL     OW25887   6.814   2.239   3.995  0.2519 -0.4348  0.7279
 8149SOL    HW125888   6.905   2.210   3.995  0.3058 -0.3483 -0.8721
 8149SOL    HW225889   6.814   2.320   3.943 -1.1196 -1.8407 -1.6042
 8150SOL     OW25890   1.882   5.652   3.928  0.2952 -0.6013  0.0040
 8150SOL    HW125891   1.915   5.707   3.999 -1.5649 -0.0970  0.5280
 8150SOL    HW225892   1.863   5.568   3.970  0.8625 -0.8809 -0.2880
 8151SOL     OW25893   3.772   4.278   1.751 -0.0862  0.5045  0.1073
 8151SOL    HW125894   3.743   4.290   1.841 -1.4769  1.3242 -0.4152
 8151SOL    HW225895   3.867   4.288   1.755 -0.3710  4.2788  0.9758
 8152SOL     OW25896   7.696   7.110   2.463  0.4576 -0.2630 -0.1134
 8152SOL    HW125897   7.714   7.182   2.523 -0.3053  0.5045 -0.7870
 8152SOL    HW225898   7.613   7.073   2.495  1.5011 -1.7338  1.0420
 8153SOL     OW25899   1.546   5.798   3.396 -0.9357  0.5027 -0.5153
 8153SOL    HW125900   1.452   5.793   3.384 -1.0200 -1.9420  0.5267
 8153SOL    HW225901   1.570   5.713   3.433  1.4231  1.7000  0.9751
 8154SOL     OW25902   1.343   4.609   0.571 -0.0515  0.1792  0.1786
 8154SOL    HW125903   1.414   4.551   0.542 -1.2425 -1.5159  0.5546
 8154SOL    HW225904   1.341   4.679   0.506  0.9440 -0.5804 -0.6903
 8155SOL     OW25905   3.152   6.324   3.911  0.2006 -0.2569 -0.5200
 8155SOL    HW125906   3.156   6.374   3.993  0.8869 -0.5718 -0.3578
 8155SOL    HW225907   3.058   6.310   3.897  0.0340  0.4996 -0.2192
 8156SOL     OW25908   2.297   0.003   8.071 -0.1552 -0.5131  0.5238
 8156SOL    HW125909   2.258  -0.026   8.154 -0.3481  1.6700  1.2466
 8156SOL    HW225910   2.244   0.076   8.043  1.1995  0.1554 -0.4247
 8157SOL     OW25911   0.112   7.268   3.962  0.0962 -0.0260 -0.4375
 8157SOL    HW125912   0.043   7.333   3.969  0.1380 -0.1556  1.8350
 8157SOL    HW225913   0.190   7.318   3.939 -0.1210  0.5565  0.0685
 8158SOL     OW25914   7.248   4.834   9.992 -0.3788  0.3731  0.4575
 8158SOL    HW125915   7.238   4.740   9.976 -0.7716  0.5781 -0.5268
 8158SOL    HW225916   7.331   4.841  10.040 -0.6774 -0.5266  1.1420
 8159SOL     OW25917   6.377   4.802   3.715 -1.2282  0.3531 -0.1220
 8159SOL    HW125918   6.320   4.725   3.715  0.9982 -1.4232  0.3931
 8159SOL    HW225919   6.381   4.828   3.807 -0.0880 -0.4838  0.0900
 8160SOL     OW25920   7.341   3.253   3.209  0.4355  0.2408 -0.1829
 8160SOL    HW125921   7.400   3.318   3.247  0.4278 -0.7052  1.5256
 8160SOL    HW225922   7.255   3.274   3.247  0.2652 -0.2384 -0.2976
 8161SOL     OW25923   1.378   7.241   5.933  0.4024  0.0237  0.2067
 8161SOL    HW125924   1.417   7.308   5.878  1.4366 -1.1034 -0.4848
 8161SOL    HW225925   1.360   7.168   5.873  0.2329 -0.6981  1.1055
 8162SOL     OW25926   5.683   1.879   7.968  0.5290 -0.1014  0.1301
 8162SOL    HW125927   5.759   1.929   7.997  0.3260  0.2269  0.1104
 8162SOL    HW225928   5.698   1.864   7.875 -0.5435  2.0746 -0.4698
 8163SOL     OW25929   7.789   6.268  11.058  0.0566 -0.6491 -0.3393
 8163SOL    HW125930   7.736   6.194  11.028 -1.8282  0.2577  0.5448
 8163SOL    HW225931   7.834   6.235  11.136  0.3296 -1.2507 -0.7409
 8164SOL     OW25932   4.201   0.450   1.042  0.3614 -0.2827 -0.0471
 8164SOL    HW125933   4.226   0.377   1.098 -0.2931 -0.0090  0.6067
 8164SOL    HW225934   4.181   0.410   0.957 -2.1464 -1.1797  0.8899
 8165SOL     OW25935   5.479   6.307   5.953 -0.1429  0.1412  0.0737
 8165SOL    HW125936   5.394   6.351   5.946  0.2377  0.8568 -0.1328
 8165SOL    HW225937   5.537   6.373   5.989  0.1837 -0.5461  0.8293
 8166SOL     OW25938   2.125   1.154   6.661  0.4128 -0.0175 -0.2783
 8166SOL    HW125939   2.080   1.121   6.739  0.8474 -1.1379 -0.4836
 8166SOL    HW225940   2.171   1.232   6.691 -0.2659  0.1593  0.3373
 8167SOL     OW25941   1.067   0.227   7.949  0.6397 -0.6310  0.4539
 8167SOL    HW125942   1.106   0.310   7.923 -1.5792 -0.0178 -1.2217
 8167SOL    HW225943   1.005   0.250   8.019  1.4260 -1.2237  1.3795
 8168SOL     OW25944   6.572   6.229   8.955 -0.0271 -0.2803 -0.0068
 8168SOL    HW125945   6.558   6.135   8.955  0.3241 -0.3711  1.9430
 8168SOL    HW225946   6.522   6.261   8.879  0.8199 -2.1326 -1.4081
 8169SOL     OW25947   7.020   7.849   7.461 -0.1010 -0.6595  0.0222
 8169SOL    HW125948   7.066   7.794   7.526  0.4167 -0.4256 -0.1398
 8169SOL    HW225949   7.080   7.853   7.387  1.3178  2.6538  1.1799
 8170SOL     OW25950   2.173   5.572  10.911 -0.1407 -0.0773 -0.0344
 8170SOL    HW125951   2.099   5.629  10.932  0.1469  0.0502  0.6649
 8170SOL    HW225952   2.196   5.532  10.995 -0.0425 -0.8708 -0.4317
 8171SOL     OW25953   6.632   0.642   0.232  0.4196 -0.3678 -0.5505
 8171SOL    HW125954   6.597   0.699   0.163  1.5083 -0.0290 -0.8408
 8171SOL    HW225955   6.604   0.684   0.313 -0.4453 -0.4972 -0.7683
 8172SOL     OW25956   0.932   1.987   0.147 -0.2558 -0.1287  0.1289
 8172SOL    HW125957   0.865   1.980   0.216 -0.6105 -1.4185 -0.3096
 8172SOL    HW225958   1.012   2.011   0.193 -0.6753 -0.1396  0.8799
 8173SOL     OW25959   4.751   0.881   5.489 -0.0096 -0.6989  0.1001
 8173SOL    HW125960   4.835   0.856   5.451 -0.9263 -0.4659 -2.1965
 8173SOL    HW225961   4.699   0.800   5.488 -0.1571 -0.6131  0.5772
 8174SOL     OW25962   4.409   2.642   5.167 -0.5604  0.1079  0.0147
 8174SOL    HW125963   4.475   2.658   5.235  0.6301 -0.2741 -1.0231
 8174SOL    HW225964   4.334   2.695   5.194  0.1603  0.5469  1.2291
 8175SOL     OW25965   2.226   4.133   4.996 -0.0028 -0.4352 -0.3696
 8175SOL    HW125966   2.145   4.135   4.946 -0.5766 -3.3483  0.2382
 8175SOL    HW225967   2.261   4.222   4.989 -2.4375  0.5114 -1.9194
 8176SOL     OW25968   4.540   3.044   9.384 -0.2788  0.6644 -0.5852
 8176SOL    HW125969   4.544   2.952   9.360  2.3099  1.1383 -2.4520
 8176SOL    HW225970   4.615   3.058   9.442 -1.8323  1.2466  1.4013
 8177SOL     OW25971   3.615   1.045   8.520  0.3406  0.1160 -0.8279
 8177SOL    HW125972   3.657   1.054   8.606  2.2490  1.1476 -1.7838
 8177SOL    HW225973   3.558   0.969   8.528  1.1745 -0.3628  1.0786
 8178SOL     OW25974   3.054   3.872   8.979 -0.0558 -0.0472  0.2770
 8178SOL    HW125975   3.015   3.837   9.059 -0.5178  0.0211  0.0851
 8178SOL    HW225976   3.002   3.950   8.959  0.8750  0.6728  0.6208
 8179SOL     OW25977   3.707   7.169   5.011  0.4115 -0.5897 -0.4027
 8179SOL    HW125978   3.641   7.175   5.080  1.1784  2.2918  0.2032
 8179SOL    HW225979   3.658   7.181   4.930 -0.0406 -0.1172 -0.0715
 8180SOL     OW25980   5.730   5.155   3.452 -0.0398 -0.6244 -0.8858
 8180SOL    HW125981   5.723   5.080   3.393  0.7295 -2.9629  1.7600
 8180SOL    HW225982   5.805   5.135   3.507  0.6934  2.5535 -0.5383
 8181SOL     OW25983   2.392   6.969  12.278 -0.0693  0.1022 -0.1127
 8181SOL    HW125984   2.363   6.904  12.342  1.3735  0.8355  1.3679
 8181SOL    HW225985   2.321   7.033  12.273 -0.5498 -0.4132  0.0915
 8182SOL     OW25986   3.043   6.047   5.039  0.0840 -0.5144 -0.6294
 8182SOL    HW125987   3.038   5.996   5.120 -0.7090 -1.0009 -0.9654
 8182SOL    HW225988   3.013   6.134   5.063 -0.5219 -0.7624 -0.4703
 8183SOL     OW25989   7.816   6.629   9.379  0.1457 -0.2510 -0.4906
 8183SOL    HW125990   7.822   6.535   9.392 -1.8793 -0.2871  0.6069
 8183SOL    HW225991   7.885   6.666   9.434  0.3273 -1.0410 -0.1850
 8184SOL     OW25992   3.417   2.956   5.951  0.3702  0.7574 -0.3513
 8184SOL    HW125993   3.324   2.935   5.943  0.6156 -0.3352 -0.4159
 8184SOL    HW225994   3.441   2.929   6.039  1.4830 -2.6239 -1.5357
 8185SOL     OW25995   2.687   7.721  11.824 -0.1647  0.0038  0.4078
 8185SOL    HW125996   2.594   7.725  11.803 -0.5430 -0.5754  1.8882
 8185SOL    HW225997   2.722   7.806  11.795 -0.9432 -0.1255 -0.9962
 8186SOL     OW25998   0.854   1.353   4.131 -0.0010  0.1774  0.6585
 8186SOL    HW125999   0.776   1.302   4.108 -0.8457 -0.2223  3.8306
 8186SOL    HW226000   0.924   1.289   4.135  0.0829  0.1954 -0.2828
 8187SOL     OW26001   5.122   5.467   0.813 -0.7819  0.2014  0.0602
 8187SOL    HW126002   5.127   5.374   0.792 -4.8699 -0.0118 -0.8471
 8187SOL    HW226003   5.067   5.471   0.892 -1.2739  1.8638 -0.3158
 8188SOL     OW26004   6.303   2.292  11.135  0.1443 -0.0002  0.4891
 8188SOL    HW126005   6.274   2.211  11.176 -0.3070 -0.1095 -0.0319
 8188SOL    HW226006   6.222   2.337  11.110  0.4057 -0.0034 -0.3995
 8189SOL     OW26007   3.746   5.208   6.785 -0.0598 -0.3286  0.0416
 8189SOL    HW126008   3.721   5.301   6.791  1.2434  0.1156 -0.8847
 8189SOL    HW226009   3.687   5.164   6.846 -1.0660  1.0348  0.1178
 8190SOL     OW26010   5.973   1.335   1.589 -0.2570  0.1741 -0.5420
 8190SOL    HW126011   6.060   1.362   1.620  0.1507 -0.8945 -0.7052
 8190SOL    HW226012   5.951   1.398   1.521  0.0168  0.9587  0.0819
 8191SOL     OW26013   3.070   7.731   2.885 -0.0745  0.4931  0.0008
 8191SOL    HW126014   3.080   7.729   2.790 -0.4108  0.7925 -0.0459
 8191SOL    HW226015   3.053   7.823   2.904  2.0018  0.8097  0.5703
 8192SOL     OW26016   5.759   7.853   6.111  0.6906  0.4321 -0.4409
 8192SOL    HW126017   5.775   7.762   6.088 -0.4738  0.1705 -0.2819
 8192SOL    HW226018   5.728   7.850   6.201  0.0411  0.9078 -0.6371
 8193SOL     OW26019   0.560   4.480   3.802 -0.0701  0.4689  0.0695
 8193SOL    HW126020   0.610   4.440   3.873  0.5539  1.8375  0.4519
 8193SOL    HW226021   0.602   4.566   3.789  1.7965 -0.7722 -3.9468
 8194SOL     OW26022   5.769   0.839   2.055  0.0976 -0.0152 -0.1727
 8194SOL    HW126023   5.678   0.866   2.050 -0.2924 -0.9699  1.2883
 8194SOL    HW226024   5.792   0.813   1.966 -0.1036  3.0306 -1.2465
 8195SOL     OW26025   1.492   6.072  10.989  0.9078 -0.0253 -0.5014
 8195SOL    HW126026   1.536   6.048  11.071  2.2976  0.0658 -1.2057
 8195SOL    HW226027   1.420   6.130  11.017  1.1704 -0.2447  0.6741
 8196SOL     OW26028   3.686   5.122  11.028  0.3353  0.0028  0.2484
 8196SOL    HW126029   3.624   5.187  11.060 -0.6120 -0.4883 -0.5305
 8196SOL    HW226030   3.634   5.043  11.014  1.2793 -0.6485  0.2823
 8197SOL     OW26031   6.673   3.245   6.944  0.1466  1.0311 -0.2456
 8197SOL    HW126032   6.714   3.216   7.025 -1.4979  0.1086  0.2921
 8197SOL    HW226033   6.726   3.204   6.875  0.7509  0.7258  0.3873
 8198SOL     OW26034   5.300   4.011   5.385  0.2562  0.0190 -0.4888
 8198SOL    HW126035   5.299   3.951   5.310  1.3107  0.8410 -1.1882
 8198SOL    HW226036   5.367   4.075   5.363 -0.4950  1.1692  0.4669
 8199SOL     OW26037   4.660   0.269   5.255  0.2815 -0.6124 -0.1768
 8199SOL    HW126038   4.595   0.333   5.286  2.1499  0.3880  1.9581
 8199SOL    HW226039   4.650   0.194   5.315  1.3855 -0.2286  0.5251
 8200SOL     OW26040   7.048   0.538  11.254  0.0944  0.1786 -0.5543
 8200SOL    HW126041   7.134   0.497  11.247  1.0094  1.9861 -0.6616
 8200SOL    HW226042   7.067   0.632  11.264 -1.8675  0.8751 -2.4544
 8201SOL     OW26043   1.657   0.963   5.425 -0.4230 -0.7479  0.0413
 8201SOL    HW126044   1.624   0.885   5.381 -1.1490 -2.0157  2.6504
 8201SOL    HW226045   1.655   0.941   5.518  0.4266  1.9973  0.8039
 8202SOL     OW26046   7.608   4.326   3.734 -0.0849  0.1411  0.2557
 8202SOL    HW126047   7.544   4.387   3.770 -0.5866 -0.6653  0.7619
 8202SOL    HW226048   7.555   4.255   3.697  0.4032  0.9201 -2.1042
 8203SOL     OW26049   2.087   4.616   6.880 -0.3030 -0.0609 -0.0812
 8203SOL    HW126050   2.105   4.697   6.927  0.6517 -0.5251  0.3962
 8203SOL    HW226051   2.134   4.549   6.929  0.5021 -0.6084 -1.5272
 8204SOL     OW26052   7.928   7.730   4.332  0.7522 -0.3620 -0.0086
 8204SOL    HW126053   7.855   7.731   4.269  0.4019 -0.8385  0.3817
 8204SOL    HW226054   8.003   7.700   4.281  0.9325  1.1823 -0.6781
 8205SOL     OW26055   4.466   5.525   3.034  0.6571  0.0821  0.2234
 8205SOL    HW126056   4.495   5.553   3.121 -1.1283  0.0864  0.8694
 8205SOL    HW226057   4.435   5.436   3.046 -0.6188  0.4511 -0.1293
 8206SOL     OW26058   5.973   3.016   9.011 -0.5687 -0.1428  0.0140
 8206SOL    HW126059   5.995   2.923   9.008  1.4372  0.3099 -0.3316
 8206SOL    HW226060   5.975   3.044   8.919 -0.8898  0.3085  0.1392
 8207SOL     OW26061   6.858   2.008   7.293  0.0434  0.2926 -0.4255
 8207SOL    HW126062   6.949   1.989   7.314 -0.2144 -0.4357  0.0808
 8207SOL    HW226063   6.856   2.017   7.198  0.3960 -1.1051 -0.5777
 8208SOL     OW26064   4.391   2.506   1.533  0.2626 -0.0999 -0.2773
 8208SOL    HW126065   4.440   2.568   1.586  0.9674  0.1483 -1.2012
 8208SOL    HW226066   4.451   2.480   1.464 -0.7034 -0.2454 -1.0896
 8209SOL     OW26067   2.841   5.065   6.181  0.2684 -0.4799 -0.0886
 8209SOL    HW126068   2.892   5.035   6.107 -1.9893 -3.1052 -0.7237
 8209SOL    HW226069   2.851   4.996   6.247 -0.2021  0.3505  0.8873
 8210SOL     OW26070   2.289   1.066   7.257  0.1091 -0.0805  0.1759
 8210SOL    HW126071   2.237   1.004   7.308  0.4632  0.3378  1.0589
 8210SOL    HW226072   2.332   1.122   7.322 -1.2723  2.0033 -0.6021
 8211SOL     OW26073   2.082   1.694   1.945  0.9046 -0.2099 -0.0527
 8211SOL    HW126074   2.000   1.742   1.958 -0.2376 -2.4214  1.3897
 8211SOL    HW226075   2.139   1.757   1.899 -0.8758  2.0786  0.6707
 8212SOL     OW26076   5.663   2.340   1.126 -0.0948 -0.2953  0.5275
 8212SOL    HW126077   5.618   2.332   1.043  2.9167 -0.3816 -1.2512
 8212SOL    HW226078   5.707   2.256   1.138  2.5868  0.9600  0.1830
 8213SOL     OW26079   3.791   7.450   1.787  0.0817 -0.0173 -0.2480
 8213SOL    HW126080   3.733   7.490   1.852 -1.0326 -1.4112 -0.3143
 8213SOL    HW226081   3.843   7.522   1.753 -0.7096  1.0730  0.7649
 8214SOL     OW26082   7.404   0.702   4.747 -0.4743 -0.8340 -0.4721
 8214SOL    HW126083   7.401   0.770   4.679  0.7147 -0.0879  0.1901
 8214SOL    HW226084   7.312   0.683   4.765 -0.9207  1.8556  0.5280
 8215SOL     OW26085   0.619   6.610  11.802 -0.1827 -1.1646  0.1942
 8215SOL    HW126086   0.629   6.576  11.890  2.0236 -2.4600 -0.4795
 8215SOL    HW226087   0.548   6.674  11.809  1.0425  0.0662  3.2744
 8216SOL     OW26088   2.213   6.375   9.296  0.2334 -0.1184 -0.1379
 8216SOL    HW126089   2.158   6.432   9.349  0.4597 -1.9171  2.2379
 8216SOL    HW226090   2.151   6.327   9.240 -0.3225  0.0193  0.3467
 8217SOL     OW26091   4.023   5.821  11.346 -0.4469  0.4925  0.0780
 8217SOL    HW126092   3.980   5.874  11.413 -0.9830  0.5074 -0.2754
 8217SOL    HW226093   3.973   5.739  11.344 -0.8082  0.7185 -0.7121
 8218SOL     OW26094   0.205   5.451   2.498  0.0867 -0.2687 -0.3240
 8218SOL    HW126095   0.133   5.469   2.438  0.3146 -0.3954 -0.6349
 8218SOL    HW226096   0.201   5.356   2.513 -0.5206 -0.1231  0.5654
 8219SOL     OW26097   5.271   6.190  12.131 -0.2561 -0.3677 -0.4878
 8219SOL    HW126098   5.266   6.256  12.063 -0.1356 -0.4344 -0.5620
 8219SOL    HW226099   5.360   6.155  12.125  0.0129  0.1766  0.2212
 8220SOL     OW26100   7.851   1.993   5.561 -0.2422 -0.0927 -0.0570
 8220SOL    HW126101   7.905   2.050   5.506  0.1487  0.7373  1.1356
 8220SOL    HW226102   7.779   1.966   5.505  0.1368  0.7386 -0.9662
 8221SOL     OW26103   0.421   2.443   0.135 -0.3280 -0.1061 -0.1411
 8221SOL    HW126104   0.509   2.407   0.132 -0.4688 -0.6221  1.2935
 8221SOL    HW226105   0.381   2.417   0.051  1.2369  1.1661 -1.3475
 8222SOL     OW26106   6.246   4.195   8.812 -0.2485 -0.0741  0.2598
 8222SOL    HW126107   6.323   4.210   8.757 -0.6909 -0.2761 -0.4405
 8222SOL    HW226108   6.172   4.213   8.754 -0.7819 -2.7331 -0.0310
 8223SOL     OW26109   7.060   2.103  11.794 -0.2689 -0.5531  0.0485
 8223SOL    HW126110   7.036   2.032  11.734 -0.2025 -1.1573  0.7186
 8223SOL    HW226111   7.143   2.074  11.832  0.1054  0.2076 -0.1671
 8224SOL     OW26112   4.890   1.265   0.346 -0.1211 -0.1820 -0.2468
 8224SOL    HW126113   4.901   1.217   0.264 -0.9229  0.8478 -0.9818
 8224SOL    HW226114   4.978   1.276   0.380  0.0649 -2.6392  0.2347
 8225SOL     OW26115   1.800   0.495   1.150 -0.6354  0.0788  0.1341
 8225SOL    HW126116   1.865   0.555   1.115 -0.7133  1.0897  1.6611
 8225SOL    HW226117   1.815   0.413   1.103  0.9689  0.6221 -0.3444
 8226SOL     OW26118   2.797   1.026   6.226 -0.4915 -0.3644  0.3237
 8226SOL    HW126119   2.802   1.094   6.293  2.1449 -1.0768  0.9849
 8226SOL    HW226120   2.746   0.956   6.267 -1.1840  0.2570  0.5469
 8227SOL     OW26121   3.620   7.737   9.079  0.3907 -0.2419  0.0829
 8227SOL    HW126122   3.667   7.687   9.146  0.8308  1.0644  0.7938
 8227SOL    HW226123   3.634   7.688   8.998  1.8544 -0.6056  0.5211
 8228SOL     OW26124   0.864   2.358   1.750 -0.3903  0.0731 -0.0682
 8228SOL    HW126125   0.900   2.436   1.708 -0.2529 -0.7744 -1.5806
 8228SOL    HW226126   0.936   2.295   1.752 -0.7829 -0.3790  0.2218
 8229SOL     OW26127   1.295   2.845   0.364  0.5577 -0.3639  0.2394
 8229SOL    HW126128   1.275   2.890   0.282 -1.2017 -1.2267  0.1353
 8229SOL    HW226129   1.253   2.899   0.431 -1.2342 -1.5601  0.1504
 8230SOL     OW26130   3.313   5.032   6.708 -0.6731 -0.5437  0.2814
 8230SOL    HW126131   3.348   4.946   6.685 -2.7286 -1.1737 -0.7287
 8230SOL    HW226132   3.246   5.048   6.642  0.3309  2.3254 -0.1883
 8231SOL     OW26133   2.555   0.347   6.827  0.2218 -0.3392 -0.2010
 8231SOL    HW126134   2.595   0.289   6.892 -0.6106  0.0007  0.6269
 8231SOL    HW226135   2.584   0.434   6.852 -0.8296 -0.1147  0.2593
 8232SOL     OW26136   4.358   5.672   5.400  0.4444  0.2005 -0.6840
 8232SOL    HW126137   4.434   5.726   5.379  0.0435  1.6643  1.3698
 8232SOL    HW226138   4.387   5.618   5.474 -0.2425  0.1810 -0.4228
 8233SOL     OW26139   6.388   6.694   2.611  0.1285 -0.1877  0.0980
 8233SOL    HW126140   6.425   6.759   2.553  0.6188 -1.0901 -0.6281
 8233SOL    HW226141   6.316   6.656   2.561  0.3738 -0.7752  0.1850
 8234SOL     OW26142   3.638   6.828   0.122  0.4757  0.0875 -0.4952
 8234SOL    HW126143   3.672   6.917   0.135 -0.1184  0.0713  1.5510
 8234SOL    HW226144   3.546   6.834   0.151  0.8740 -1.5231  1.2959
 8235SOL     OW26145   5.168   1.136   2.665 -0.1006 -0.2237 -0.3425
 8235SOL    HW126146   5.204   1.169   2.747 -0.3135 -1.0111  0.0711
 8235SOL    HW226147   5.075   1.156   2.670  0.3307  2.8502 -1.8997
 8236SOL     OW26148   3.321   4.992   9.831  0.4265 -0.2293  0.1342
 8236SOL    HW126149   3.311   4.913   9.885  0.6727 -0.3451  0.0123
 8236SOL    HW226150   3.268   5.059   9.876  0.3244 -0.4265  0.3104
 8237SOL     OW26151   0.698   0.069   0.488 -0.1068  0.8187 -0.2441
 8237SOL    HW126152   0.748  -0.005   0.453  1.8111  0.4612  2.8370
 8237SOL    HW226153   0.622   0.028   0.530 -0.9695  1.0102 -1.5453
 8238SOL     OW26154   4.788   1.529   3.191  0.1933  0.0602  0.1260
 8238SOL    HW126155   4.773   1.491   3.278 -2.4373 -0.3783 -0.4112
 8238SOL    HW226156   4.834   1.460   3.143  0.9248 -0.0241  0.9329
 8239SOL     OW26157   5.513   5.732   2.919  0.2920  0.4309  0.0978
 8239SOL    HW126158   5.564   5.804   2.882 -0.4576  0.6479 -0.5313
 8239SOL    HW226159   5.468   5.693   2.844  2.1592 -1.9480  0.0959
 8240SOL     OW26160   4.888   3.378  11.155  0.1451 -0.1833  0.5176
 8240SOL    HW126161   4.818   3.314  11.167  0.7175 -0.8653  0.3125
 8240SOL    HW226162   4.900   3.383  11.060 -0.1991  0.5769  0.5056
 8241SOL     OW26163   6.291   4.766   1.145  0.1920  0.1811 -0.3746
 8241SOL    HW126164   6.371   4.781   1.195 -1.0042 -0.0635  1.7498
 8241SOL    HW226165   6.231   4.726   1.207 -2.2798  2.2227 -1.2364
 8242SOL     OW26166   5.010   4.641   1.449  0.0522 -0.1945  0.2510
 8242SOL    HW126167   4.939   4.633   1.385 -0.8443  3.1674  0.6372
 8242SOL    HW226168   4.967   4.630   1.534  0.3308  0.0016  0.4172
 8243SOL     OW26169   2.074   4.067  11.039  0.1600  0.0129 -0.4738
 8243SOL    HW126170   2.046   4.147  11.083  1.1957 -0.5346  1.2906
 8243SOL    HW226171   2.166   4.058  11.061 -0.1711 -2.2154  0.3021
 8244SOL     OW26172   1.196   0.520   8.610 -0.7585  0.5302 -0.3334
 8244SOL    HW126173   1.192   0.425   8.601 -0.5249  0.6406 -1.8864
 8244SOL    HW226174   1.256   0.548   8.541 -0.7082  1.7952  0.1972
 8245SOL     OW26175   3.516   5.800   2.528  0.0707  0.0908 -0.0551
 8245SOL    HW126176   3.555   5.712   2.527  0.3808  0.2008  0.9548
 8245SOL    HW226177   3.459   5.800   2.605 -0.7636  0.4314 -0.6624
 8246SOL     OW26178   3.130   6.291   7.376  0.1404  0.2986  0.4912
 8246SOL    HW126179   3.218   6.255   7.367  0.3282  1.0045 -0.8076
 8246SOL    HW226180   3.087   6.269   7.293 -0.2449  1.6338  0.3059
 8247SOL     OW26181   6.666   7.706   0.389  0.9102 -0.2844 -0.1156
 8247SOL    HW126182   6.705   7.619   0.400 -1.9886 -1.6232  0.4577
 8247SOL    HW226183   6.703   7.758   0.461  1.5292 -1.4865  0.4705
 8248SOL     OW26184   5.672   2.555   5.631 -0.1420  0.2867  0.5013
 8248SOL    HW126185   5.613   2.532   5.559 -1.1643 -1.4369  1.8014
 8248SOL    HW226186   5.640   2.639   5.662 -1.3379 -0.1808  0.5773
 8249SOL     OW26187   0.099   7.236   3.596  0.1723 -0.4119 -0.8638
 8249SOL    HW126188   0.085   7.297   3.524 -1.0586  0.1117 -0.2243
 8249SOL    HW226189   0.150   7.286   3.660  0.7405 -0.6747 -1.1044
 8250SOL     OW26190   5.469   5.887   6.796 -0.4643  0.2924 -0.1689
 8250SOL    HW126191   5.392   5.842   6.830 -0.7404  0.5594 -0.4329
 8250SOL    HW226192   5.441   5.978   6.785 -0.5799  0.1071 -1.6707
 8251SOL     OW26193   6.588   3.507   7.061 -0.4206 -0.5643  0.4204
 8251SOL    HW126194   6.630   3.427   7.029 -1.2001 -0.4986 -0.8552
 8251SOL    HW226195   6.514   3.477   7.112 -0.1057 -0.6635  0.8189
 8252SOL     OW26196   2.620   0.470   5.103  0.1456 -0.2708  0.2841
 8252SOL    HW126197   2.700   0.521   5.115  1.3276 -2.1233  0.7021
 8252SOL    HW226198   2.611   0.460   5.009  0.4873 -0.1822  0.2415
 8253SOL     OW26199   7.318   3.213   1.532 -0.0357  0.0046 -0.3692
 8253SOL    HW126200   7.359   3.127   1.531  1.2767  0.6069 -0.5974
 8253SOL    HW226201   7.359   3.261   1.461 -2.2482  0.1912 -1.6057
 8254SOL     OW26202   5.021   1.711   0.979 -0.6439  0.2189 -0.0655
 8254SOL    HW126203   4.998   1.758   1.059  0.7489  0.5487  0.1678
 8254SOL    HW226204   4.945   1.656   0.961 -1.7936  1.5842  0.3865
 8255SOL     OW26205   3.296   5.862  10.415  0.0107  0.1096  0.2645
 8255SOL    HW126206   3.306   5.918  10.493  0.8509 -1.0168  0.9928
 8255SOL    HW226207   3.378   5.873  10.367  0.9620 -1.8168  1.3354
 8256SOL     OW26208   7.456   3.627   7.979  0.4003 -0.4179 -0.1102
 8256SOL    HW126209   7.528   3.576   8.017  0.1830 -0.7792 -0.1781
 8256SOL    HW226210   7.385   3.564   7.967  0.0604 -0.0569 -0.0200
 8257SOL     OW26211   5.362   0.312   2.387 -0.2503 -0.0653 -0.3231
 8257SOL    HW126212   5.395   0.352   2.468  1.3806 -0.1496 -0.9264
 8257SOL    HW226213   5.319   0.232   2.417  0.6339 -0.2764  0.4520
 8258SOL     OW26214   4.293   3.201   5.929 -0.0200  0.5973 -0.1918
 8258SOL    HW126215   4.227   3.241   5.985 -0.9248 -0.5408 -0.4078
 8258SOL    HW226216   4.244   3.168   5.854  0.4724 -1.9481  0.5190
 8259SOL     OW26217   5.414   7.455   8.963 -0.2803 -0.2041  0.8286
 8259SOL    HW126218   5.320   7.458   8.946 -0.1297  0.3064  0.0266
 8259SOL    HW226219   5.436   7.362   8.958 -0.9197 -0.4412  2.1080
 8260SOL     OW26220   2.302   0.284   2.374  0.1639 -0.1166 -0.1860
 8260SOL    HW126221   2.320   0.365   2.326 -1.9577  0.4645 -0.1059
 8260SOL    HW226222   2.311   0.308   2.466  1.1977 -0.4347 -0.1928
 8261SOL     OW26223   0.824   2.600   3.256  0.6522  0.2498  0.2998
 8261SOL    HW126224   0.830   2.674   3.316 -2.6323 -0.6834  2.0174
 8261SOL    HW226225   0.762   2.629   3.189  0.2283 -0.5335  0.3415
 8262SOL     OW26226   7.788   0.046   7.862  0.1525 -0.3676  0.1052
 8262SOL    HW126227   7.865   0.046   7.804 -0.9007 -0.0929 -1.3591
 8262SOL    HW226228   7.788   0.133   7.902  1.1630 -0.7258  0.9358
 8263SOL     OW26229   7.178   1.359  10.387  0.1372  0.7560  0.1741
 8263SOL    HW126230   7.214   1.297  10.449 -0.2141 -2.0980 -2.2574
 8263SOL    HW226231   7.241   1.432  10.386  2.5470 -1.2123  0.5560
 8264SOL     OW26232   0.956   0.312   8.825  0.4000  0.0019 -0.0158
 8264SOL    HW126233   0.971   0.221   8.849  0.3801  0.2637  1.0130
 8264SOL    HW226234   1.040   0.355   8.841  0.2421  0.2809  0.0546
 8265SOL     OW26235   3.060   5.865   8.069 -0.1413 -0.4631  0.6677
 8265SOL    HW126236   3.150   5.876   8.039 -0.1785 -2.6056 -0.4240
 8265SOL    HW226237   3.068   5.816   8.151 -0.2864  0.4016  1.2110
 8266SOL     OW26238   0.347   6.102   7.842 -0.2218 -0.5227 -0.5057
 8266SOL    HW126239   0.423   6.133   7.793  0.5575  1.6915  1.8656
 8266SOL    HW226240   0.357   6.007   7.845  0.3722 -0.6213 -3.4018
 8267SOL     OW26241   7.714   0.718   7.641  0.3447  0.1200 -0.0658
 8267SOL    HW126242   7.743   0.635   7.679 -0.4265 -0.5922 -1.0001
 8267SOL    HW226243   7.703   0.776   7.717  0.1084 -0.8776  0.6869
 8268SOL     OW26244   7.275   0.813   7.482  0.1780  0.2222  0.1296
 8268SOL    HW126245   7.194   0.785   7.438 -0.3051 -0.2804  1.3004
 8268SOL    HW226246   7.310   0.733   7.521  0.6849  0.6266  0.5147
 8269SOL     OW26247   7.643   0.126   8.575 -0.1445 -0.0477  0.1591
 8269SOL    HW126248   7.648   0.206   8.523  0.4469  0.4897  0.9991
 8269SOL    HW226249   7.646   0.157   8.666  0.0662 -1.0274  0.4990
 8270SOL     OW26250   6.625   5.065  11.536  0.0110  0.3119 -0.2245
 8270SOL    HW126251   6.584   5.141  11.578 -2.8220 -0.8087 -0.7505
 8270SOL    HW226252   6.693   5.038  11.598  0.0524  2.3194  0.7011
 8271SOL     OW26253   4.786   6.856   1.526 -0.2954  0.4260  0.1627
 8271SOL    HW126254   4.715   6.794   1.508  0.7507 -0.8382  0.3202
 8271SOL    HW226255   4.771   6.884   1.616 -0.9160  0.6142  0.0075
 8272SOL     OW26256   1.671   3.268   7.116  0.2524 -0.3287  0.4968
 8272SOL    HW126257   1.709   3.354   7.099  0.6988 -0.7454 -0.7244
 8272SOL    HW226258   1.577   3.280   7.101  0.3291 -0.0793  0.2073
 8273SOL     OW26259   4.814   7.256   5.270  0.2576 -0.2204  0.4724
 8273SOL    HW126260   4.724   7.223   5.266  0.6813 -1.4455  0.6815
 8273SOL    HW226261   4.853   7.212   5.345  0.7348  1.1123  1.0309
 8274SOL     OW26262   5.798   5.247  10.321 -0.7423  0.4739  0.0009
 8274SOL    HW126263   5.847   5.310  10.374 -0.3530 -0.8247  1.2774
 8274SOL    HW226264   5.819   5.269  10.231 -0.4937  2.0464  0.4166
 8275SOL     OW26265   3.628   7.914   7.247  0.3495  0.0866  0.0159
 8275SOL    HW126266   3.594   7.986   7.300  0.3010  1.0086 -1.1968
 8275SOL    HW226267   3.582   7.923   7.163  0.6909 -1.0828 -0.3118
 8276SOL     OW26268   2.115   4.365   5.610  0.1511  0.7601 -0.1766
 8276SOL    HW126269   2.047   4.428   5.589  0.1013  0.8074  0.1314
 8276SOL    HW226270   2.086   4.283   5.569 -0.7148  0.4579  0.9995
 8277SOL     OW26271   5.279   3.809   1.762 -0.6709 -0.0716  0.3301
 8277SOL    HW126272   5.261   3.715   1.774 -1.3062 -0.1020 -0.7063
 8277SOL    HW226273   5.238   3.830   1.678  1.4761  0.6228 -0.6097
 8278SOL     OW26274   5.397   1.138   9.516 -0.3746 -0.3180 -0.0595
 8278SOL    HW126275   5.425   1.100   9.599 -0.0128  0.9564  0.4131
 8278SOL    HW226276   5.463   1.110   9.453  0.6815  0.6923  0.5732
 8279SOL     OW26277   2.687   2.285   3.323 -0.2637 -0.1904  0.2468
 8279SOL    HW126278   2.657   2.373   3.344 -0.1367 -0.0658 -0.0753
 8279SOL    HW226279   2.706   2.244   3.408 -1.3416 -0.2818  0.4587
 8280SOL     OW26280   1.045   7.637  10.509  0.2550  0.0579 -0.4726
 8280SOL    HW126281   1.096   7.672  10.582  1.8074 -1.3297 -0.8243
 8280SOL    HW226282   1.062   7.543  10.511  0.2540 -0.0317 -2.5349
 8281SOL     OW26283   3.591   0.947   1.561  0.2717  0.0704 -0.1724
 8281SOL    HW126284   3.591   0.989   1.646  0.1580 -1.1874  0.4775
 8281SOL    HW226285   3.591   1.019   1.498  0.0721  1.0130  0.8806
 8282SOL     OW26286   7.826   4.838  10.633 -0.0670  0.0616  0.1616
 8282SOL    HW126287   7.859   4.926  10.613 -0.6993  0.4600  0.7846
 8282SOL    HW226288   7.757   4.823  10.569  1.5472 -0.9428 -1.4080
 8283SOL     OW26289   7.432   5.033  12.135  0.1642 -0.6844 -0.1910
 8283SOL    HW126290   7.506   4.974  12.149  1.1622  0.4675 -0.4914
 8283SOL    HW226291   7.457   5.084  12.058 -1.5788 -1.2457 -1.1743
 8284SOL     OW26292   2.476   0.448   7.263  0.1285 -0.0130 -0.6905
 8284SOL    HW126293   2.412   0.378   7.277 -1.1608  0.8988 -1.7591
 8284SOL    HW226294   2.479   0.458   7.168  0.0291  1.6077 -0.5440
 8285SOL     OW26295   7.474   5.542   6.245 -0.6676  0.2921 -0.1559
 8285SOL    HW126296   7.463   5.627   6.289  1.8345  1.0765 -0.9009
 8285SOL    HW226297   7.510   5.485   6.312 -0.7924  0.2764 -0.1008
 8286SOL     OW26298   7.332   3.584   5.839 -0.1585  0.1783 -0.5511
 8286SOL    HW126299   7.295   3.532   5.768  0.0552  0.3608 -0.7995
 8286SOL    HW226300   7.266   3.581   5.908 -0.3208 -0.0892 -0.7176
 8287SOL     OW26301   0.681   6.510   6.874 -0.4369 -0.0847  0.0676
 8287SOL    HW126302   0.626   6.513   6.796  0.9270  0.0995 -0.9327
 8287SOL    HW226303   0.667   6.423   6.910 -0.0020 -0.7066 -1.2150
 8288SOL     OW26304   3.687   6.740   8.782 -0.3238 -0.4287 -0.5959
 8288SOL    HW126305   3.762   6.785   8.820 -0.9363  0.1131  0.0236
 8288SOL    HW226306   3.626   6.730   8.856 -1.9916  1.5919 -1.5927
 8289SOL     OW26307   1.322   4.551   9.202 -0.4572  0.2954 -0.1151
 8289SOL    HW126308   1.297   4.482   9.140 -0.1476  0.9236 -0.9714
 8289SOL    HW226309   1.253   4.551   9.267 -0.1924 -1.1858  0.2134
 8290SOL     OW26310   1.625   5.064   5.089 -0.1368  0.5721  0.3123
 8290SOL    HW126311   1.655   5.123   5.019 -2.1890  0.7338 -0.4833
 8290SOL    HW226312   1.605   4.982   5.044  2.8998 -0.9317  1.4415
 8291SOL     OW26313   2.221   4.716   6.681 -0.0658  0.7497  0.5024
 8291SOL    HW126314   2.304   4.761   6.665  1.2552  0.2585  4.8150
 8291SOL    HW226315   2.225   4.689   6.772 -3.5626 -2.4635 -0.0482
 8292SOL     OW26316   1.029   3.057   9.013 -0.2402  0.0766  0.1922
 8292SOL    HW126317   0.988   3.143   9.006  0.0406  0.4915  2.7699
 8292SOL    HW226318   0.955   2.997   9.023 -0.4598 -0.1223 -1.9921
 8293SOL     OW26319   7.824   3.556   6.823 -0.4345 -0.6625  0.8917
 8293SOL    HW126320   7.907   3.510   6.818  0.6540  1.2591  0.4969
 8293SOL    HW226321   7.785   3.547   6.736  0.9392  1.1405  0.0128
 8294SOL     OW26322   1.046   1.884   3.154  0.0688  0.1591  0.1609
 8294SOL    HW126323   1.001   1.800   3.150  0.8764 -0.2674 -0.0244
 8294SOL    HW226324   1.139   1.862   3.156  0.3856  1.0949 -1.9697
 8295SOL     OW26325   0.620   0.088   9.817 -0.6301 -0.0704 -0.1545
 8295SOL    HW126326   0.710   0.111   9.837 -0.1638 -0.2985 -1.8191
 8295SOL    HW226327   0.577   0.171   9.798  0.3883 -0.1789 -3.5953
 8296SOL     OW26328   0.501   0.789   6.494 -0.5119  0.1457 -0.4440
 8296SOL    HW126329   0.564   0.748   6.434 -0.7791  0.6297 -1.0660
 8296SOL    HW226330   0.522   0.882   6.490 -0.0980  0.1128  0.7376
 8297SOL     OW26331   5.888   2.338   6.879  0.2640  0.3101 -0.4368
 8297SOL    HW126332   5.815   2.347   6.941  1.4570 -0.1855  1.1110
 8297SOL    HW226333   5.854   2.374   6.797 -1.3734  1.0406  0.4974
 8298SOL     OW26334   5.943   3.459   4.154  0.3132  0.1952  0.1077
 8298SOL    HW126335   5.880   3.424   4.091 -2.2753  0.8291  2.1430
 8298SOL    HW226336   5.995   3.522   4.105 -2.1006  1.2265 -1.2770
 8299SOL     OW26337   6.397   5.820   5.307  0.0162  0.8881  0.4047
 8299SOL    HW126338   6.407   5.878   5.231 -0.4053  0.0282 -0.3323
 8299SOL    HW226339   6.481   5.773   5.312 -0.3158  0.1969 -0.1955
 8300SOL     OW26340   6.562   6.756   1.227 -0.5928  0.0597 -0.0919
 8300SOL    HW126341   6.608   6.808   1.293 -0.6011  2.8040 -2.0734
 8300SOL    HW226342   6.478   6.735   1.268 -0.1825  0.7731  1.1775
 8301SOL     OW26343   0.579   7.816   9.634 -0.6925 -0.0897 -0.1476
 8301SOL    HW126344   0.499   7.866   9.644  0.2309  1.3026  0.4935
 8301SOL    HW226345   0.645   7.880   9.606  0.5435 -0.8960  0.7802
 8302SOL     OW26346   0.088   0.704   2.306 -0.1980 -0.2587  0.1980
 8302SOL    HW126347   0.075   0.770   2.238 -0.9300 -2.6949 -2.2098
 8302SOL    HW226348   0.180   0.714   2.331 -0.2433  1.5211 -0.1954
 8303SOL     OW26349   1.016   1.198   8.509  0.3167 -0.0665 -0.0018
 8303SOL    HW126350   0.952   1.207   8.579 -0.5305  2.6529 -1.0222
 8303SOL    HW226351   1.094   1.242   8.541  0.2395  0.3514 -0.3708
 8304SOL     OW26352   6.403   1.238  10.036  0.4222  0.3507  0.2240
 8304SOL    HW126353   6.350   1.176  10.086 -0.9166  0.1251 -1.3811
 8304SOL    HW226354   6.353   1.320  10.038  0.7809  0.5792 -0.0082
 8305SOL     OW26355   5.736   0.763   6.963 -0.1002  0.4815 -0.1776
 8305SOL    HW126356   5.813   0.713   6.939  0.8226  3.0659 -3.3253
 8305SOL    HW226357   5.670   0.739   6.898 -0.3476  1.7028 -0.4055
 8306SOL     OW26358   6.710   4.034   4.957  0.6853  0.3368 -0.5326
 8306SOL    HW126359   6.656   3.958   4.934  1.0998  0.4212 -1.8864
 8306SOL    HW226360   6.798   3.997   4.969  0.8026  0.5366 -0.7717
 8307SOL     OW26361   6.106   3.503  12.124 -0.0910 -0.4366 -0.2054
 8307SOL    HW126362   6.079   3.446  12.053  0.5103  1.1255 -1.7629
 8307SOL    HW226363   6.195   3.474  12.147 -0.6746 -1.5962  0.6399
 8308SOL     OW26364   0.053   5.924   8.484  0.4043  0.0302 -0.9855
 8308SOL    HW126365   0.054   5.832   8.508  0.0457  0.1107 -0.6457
 8308SOL    HW226366   0.145   5.951   8.486  0.5642 -0.4500 -1.6222
 8309SOL     OW26367   0.416   5.995   6.565  0.1493  0.0655 -0.3964
 8309SOL    HW126368   0.465   5.951   6.635 -2.2143  1.1235  2.0999
 8309SOL    HW226369   0.445   6.086   6.571 -0.2875  0.2165 -0.5839
 8310SOL     OW26370   1.086   5.793   8.702  0.0777 -0.0007 -0.0572
 8310SOL    HW126371   1.013   5.775   8.643  0.0774 -1.8290  0.4461
 8310SOL    HW226372   1.052   5.856   8.765 -0.5337  0.4450 -0.8245
 8311SOL     OW26373   1.463   5.620   9.326 -0.0626 -0.0616 -0.0039
 8311SOL    HW126374   1.496   5.532   9.339 -1.6795 -0.5504  1.2076
 8311SOL    HW226375   1.525   5.677   9.372 -0.0741 -0.7802  0.9250
 8312SOL     OW26376   0.883   6.590   1.487 -0.1139  0.4968 -0.1762
 8312SOL    HW126377   0.962   6.592   1.432  0.5757 -0.4244  0.7430
 8312SOL    HW226378   0.880   6.501   1.521 -0.3496  1.1064  1.4940
 8313SOL     OW26379   2.958   6.976   2.079  0.2268 -0.4797 -0.0629
 8313SOL    HW126380   3.026   6.948   2.018 -1.2682 -0.3691 -1.8794
 8313SOL    HW226381   2.988   7.062   2.110  0.9021 -0.4028 -0.8819
 8314SOL     OW26382   3.230   4.016   1.392 -0.2270  0.8482 -0.0584
 8314SOL    HW126383   3.192   4.090   1.438  1.5457  1.6823  0.1517
 8314SOL    HW226384   3.278   3.967   1.459 -0.7154 -0.0482 -0.3405
 8315SOL     OW26385   1.454   5.099  10.170 -0.7059  0.0541 -0.0965
 8315SOL    HW126386   1.543   5.074  10.145  0.0169  1.3927  0.9589
 8315SOL    HW226387   1.417   5.021  10.211  0.1448 -0.3832 -0.1429
 8316SOL     OW26388   3.308   1.832   0.280  0.5259 -0.0012 -0.2821
 8316SOL    HW126389   3.307   1.886   0.358 -1.4102 -1.1044  0.5295
 8316SOL    HW226390   3.285   1.892   0.209 -0.3041  0.5032  0.3958
 8317SOL     OW26391   4.727   1.717   7.447  0.5651 -0.1029 -0.3366
 8317SOL    HW126392   4.678   1.753   7.521 -0.7407 -1.8062 -0.3301
 8317SOL    HW226393   4.782   1.649   7.486  0.8248 -0.1359 -0.7570
 8318SOL     OW26394   0.414   2.765   6.676 -0.1379  0.3268 -0.0140
 8318SOL    HW126395   0.414   2.730   6.765  0.5348  1.1474  0.3243
 8318SOL    HW226396   0.492   2.821   6.672 -1.1108  1.7130 -0.5465
 8319SOL     OW26397   5.848   4.200   6.762 -0.0922 -0.2664  0.6886
 8319SOL    HW126398   5.760   4.236   6.755  0.6159  1.6128  0.8266
 8319SOL    HW226399   5.838   4.120   6.812 -1.6446  0.2213  1.1976
 8320SOL     OW26400   0.086   7.492   1.465 -0.0550 -0.0583  0.1145
 8320SOL    HW126401   0.058   7.515   1.553 -0.4315 -2.1230  0.5806
 8320SOL    HW226402   0.126   7.405   1.474 -1.8255 -1.1867 -2.0166
 8321SOL     OW26403   4.223   7.023  11.512  0.0771 -0.2991 -0.4402
 8321SOL    HW126404   4.164   6.971  11.457  0.8311 -1.0678 -0.5471
 8321SOL    HW226405   4.198   7.001  11.602  2.2925 -3.2651 -0.3856
 8322SOL     OW26406   4.509   7.349   9.654  0.0867  0.2170  0.2227
 8322SOL    HW126407   4.563   7.399   9.593 -0.7608 -1.1405 -1.7390
 8322SOL    HW226408   4.520   7.258   9.627 -2.7161 -0.1686  0.0224
 8323SOL     OW26409   7.130   1.381   3.017  0.2253 -0.0299 -0.2766
 8323SOL    HW126410   7.185   1.377   2.939  1.7989  0.2134  0.7756
 8323SOL    HW226411   7.154   1.303   3.068  0.2344  0.5375  0.6117
 8324SOL     OW26412   2.523   6.385   3.844  0.4267 -0.1435 -0.2137
 8324SOL    HW126413   2.536   6.423   3.931  2.5188 -0.9281 -0.1362
 8324SOL    HW226414   2.527   6.291   3.858  0.6006 -0.2805 -1.1321
 8325SOL     OW26415   4.839   1.312   8.583 -0.0325  0.0438  0.0192
 8325SOL    HW126416   4.809   1.222   8.572  2.4861 -1.2046  2.1422
 8325SOL    HW226417   4.762   1.366   8.562 -1.6233 -2.5360 -1.3499
 8326SOL     OW26418   1.922   5.053   2.140  0.2886 -0.4168 -0.3970
 8326SOL    HW126419   1.953   4.963   2.155  0.3869 -0.3708 -0.3214
 8326SOL    HW226420   1.840   5.042   2.092  0.5373 -0.5393 -0.8080
 8327SOL     OW26421   4.751   5.762   3.469 -0.1119  0.0517 -0.1721
 8327SOL    HW126422   4.812   5.738   3.400  0.3142 -2.0386  0.8603
 8327SOL    HW226423   4.777   5.851   3.495  1.1470 -0.0133 -1.1510
 8328SOL     OW26424   0.444   1.469   3.144  0.6053  0.1163  0.5390
 8328SOL    HW126425   0.412   1.389   3.101  0.0944  0.4871  0.2275
 8328SOL    HW226426   0.438   1.450   3.237  1.2409 -0.5065  0.4680
 8329SOL     OW26427   4.789   7.636   3.947 -0.0948 -0.2040 -0.0591
 8329SOL    HW126428   4.792   7.643   3.852  1.0248 -1.3479 -0.1364
 8329SOL    HW226429   4.795   7.542   3.964  2.1978  0.1057  1.1913
 8330SOL     OW26430   7.578   2.853   6.224 -0.3618 -0.1457 -0.0561
 8330SOL    HW126431   7.506   2.828   6.281  0.1478 -1.6593 -0.0174
 8330SOL    HW226432   7.607   2.770   6.185  0.1352  0.6811 -1.5118
 8331SOL     OW26433   5.709   4.179   6.474 -0.4238 -0.3052  0.0050
 8331SOL    HW126434   5.797   4.205   6.447  0.5398 -2.3573  0.9380
 8331SOL    HW226435   5.723   4.102   6.529 -2.6670  0.4900  1.8703
 8332SOL     OW26436   6.036   2.303   5.798  0.3675 -0.1121  0.0398
 8332SOL    HW126437   6.042   2.322   5.892 -0.5382  1.7000 -0.2172
 8332SOL    HW226438   6.110   2.244   5.781  0.6326 -0.3716  1.8505
 8333SOL     OW26439   7.582   2.868   7.440 -0.2393  0.1096 -0.4404
 8333SOL    HW126440   7.674   2.845   7.453 -0.0914  0.8300 -0.1787
 8333SOL    HW226441   7.561   2.835   7.352  0.0690 -0.6615 -0.2338
 8334SOL     OW26442   7.877   1.029   1.210  0.5710  0.2509  0.1297
 8334SOL    HW126443   7.825   1.105   1.183 -1.0911 -0.8930 -0.0079
 8334SOL    HW226444   7.887   0.976   1.131 -0.6280 -0.9945  0.7761
 8335SOL     OW26445   2.336   6.530   1.121  0.4196  0.5137 -0.5253
 8335SOL    HW126446   2.406   6.595   1.113  1.2469 -0.2347  0.2982
 8335SOL    HW226447   2.360   6.479   1.199  0.1777 -1.2319 -1.5453
 8336SOL     OW26448   1.849   7.451   0.162  0.0034 -0.1618  0.4047
 8336SOL    HW126449   1.929   7.400   0.173 -1.3151 -2.0343  1.9818
 8336SOL    HW226450   1.790   7.394   0.113 -0.4850  1.1214 -0.5797
 8337SOL     OW26451   5.704   1.279   7.935 -0.0890 -0.0592 -0.2264
 8337SOL    HW126452   5.763   1.303   7.864 -1.9397 -0.7083 -2.0839
 8337SOL    HW226453   5.758   1.284   8.014  2.4052 -0.5153 -1.7839
 8338SOL     OW26454   1.480   1.602   3.034 -0.1741 -0.1640  0.1925
 8338SOL    HW126455   1.478   1.515   2.994 -0.4380  0.1128 -0.4128
 8338SOL    HW226456   1.523   1.658   2.969 -1.1675  0.4191  0.0136
 8339SOL     OW26457   2.549   7.129   4.368 -0.1545  0.1924  0.7374
 8339SOL    HW126458   2.593   7.179   4.437  0.5859 -0.9548  1.1408
 8339SOL    HW226459   2.615   7.064   4.340 -1.0076 -0.4350  0.1197
 8340SOL     OW26460   5.446   4.532  11.380 -0.3962 -0.6182 -0.1963
 8340SOL    HW126461   5.406   4.511  11.295 -0.9690  1.4360 -0.4984
 8340SOL    HW226462   5.501   4.608  11.362  2.3582 -2.2994  0.5894
 8341SOL     OW26463   0.221   1.230   1.641  0.0504  0.2140  0.2262
 8341SOL    HW126464   0.206   1.190   1.726  0.2728 -0.7914 -0.1957
 8341SOL    HW226465   0.138   1.274   1.620 -0.0428  0.3649  0.8950
 8342SOL     OW26466   4.042   3.109   0.953 -0.0207 -0.0035 -0.4558
 8342SOL    HW126467   4.028   3.083   1.045 -1.4460  0.6075 -0.4772
 8342SOL    HW226468   3.969   3.069   0.906 -0.1417  0.9142 -1.0736
 8343SOL     OW26469   5.754   2.112   8.388 -0.3612  0.8313 -0.5560
 8343SOL    HW126470   5.660   2.120   8.372 -1.1290  0.2251  2.9401
 8343SOL    HW226471   5.787   2.202   8.385 -0.8685  1.0028 -2.3665
 8344SOL     OW26472   2.473   4.539   2.272  0.0921  0.0694 -0.0975
 8344SOL    HW126473   2.554   4.588   2.258 -0.1639  0.8737  1.0939
 8344SOL    HW226474   2.420   4.596   2.327 -0.9109 -0.8396 -0.1012
 8345SOL     OW26475   2.899   1.329  10.725  0.3375 -0.5304  0.0646
 8345SOL    HW126476   2.977   1.367  10.684  0.4657 -0.0495  0.7245
 8345SOL    HW226477   2.908   1.235  10.712  0.0500 -0.3572 -1.5426
 8346SOL     OW26478   1.921   4.447  11.281 -0.3142 -0.8259 -0.1638
 8346SOL    HW126479   1.957   4.383  11.343  0.0344 -2.3527 -1.8689
 8346SOL    HW226480   1.976   4.439  11.204 -1.0370  0.6905 -0.8750
 8347SOL     OW26481   5.617   3.996   7.895  0.3533 -0.5035  0.3014
 8347SOL    HW126482   5.685   4.061   7.880  0.4743 -0.5562  0.6047
 8347SOL    HW226483   5.615   3.985   7.990 -1.6070  1.1425  0.5162
 8348SOL     OW26484   4.887   4.879   3.211 -0.2857 -0.2329  0.4714
 8348SOL    HW126485   4.858   4.794   3.177  0.8248 -0.4791  0.0926
 8348SOL    HW226486   4.812   4.912   3.260 -1.4263 -0.5567 -0.9735
 8349SOL     OW26487   2.949   3.078   6.964  0.1283  0.4292  0.4372
 8349SOL    HW126488   2.995   3.140   6.907  0.4780 -0.2707 -0.0613
 8349SOL    HW226489   2.886   3.036   6.906  0.1709  0.0334  0.6747
 8350SOL     OW26490   6.355   3.410  12.192  0.6177  0.4514 -0.0557
 8350SOL    HW126491   6.442   3.409  12.152  1.5326 -1.5693  1.8147
 8350SOL    HW226492   6.371   3.426  12.285 -1.0509  0.4218  0.2653
 8351SOL     OW26493   0.852   7.685   5.588  0.6393 -0.0805  0.0440
 8351SOL    HW126494   0.816   7.643   5.665  1.0303  0.6567  0.6460
 8351SOL    HW226495   0.785   7.747   5.560  1.3642  1.2611  1.1394
 8352SOL     OW26496   0.745   5.187  10.441 -0.0004 -0.3731 -0.1809
 8352SOL    HW126497   0.774   5.257  10.383  1.8157  1.3037  2.5286
 8352SOL    HW226498   0.669   5.224  10.487 -0.1390 -0.8672 -0.0071
 8353SOL     OW26499   0.662   4.752  10.911 -0.4957 -0.0175  0.5027
 8353SOL    HW126500   0.710   4.670  10.904 -1.7604 -0.7916  0.5919
 8353SOL    HW226501   0.715   4.815  10.862 -0.1406 -1.1783 -0.6638
 8354SOL     OW26502   0.180   6.977   3.682  0.2416 -0.5297 -0.3732
 8354SOL    HW126503   0.130   7.055   3.659  0.3250 -0.6758 -1.0858
 8354SOL    HW226504   0.116   6.906   3.684  0.6679 -1.1495 -3.5040
 8355SOL     OW26505   5.308   1.809   9.768 -0.3811 -0.2330 -0.5555
 8355SOL    HW126506   5.260   1.832   9.688 -1.0074 -0.1231 -0.1570
 8355SOL    HW226507   5.299   1.886   9.824  1.7247  0.4945 -1.1081
 8356SOL     OW26508   7.359   1.252   9.149 -0.3811  0.0176  0.0324
 8356SOL    HW126509   7.393   1.171   9.188  0.6050  0.5536  0.3388
 8356SOL    HW226510   7.427   1.318   9.169 -0.7963  0.7416 -0.8896
 8357SOL     OW26511   7.635   3.196  10.383 -0.0712 -0.1480  0.1049
 8357SOL    HW126512   7.647   3.189  10.289  1.7861 -0.1563  0.3226
 8357SOL    HW226513   7.587   3.278  10.394 -1.8636 -0.9934 -0.9172
 8358SOL     OW26514   2.457   4.899   2.580  0.3419  0.1446  0.0266
 8358SOL    HW126515   2.552   4.897   2.579  0.3465 -0.5050 -1.5414
 8358SOL    HW226516   2.431   4.815   2.543 -0.7990  0.9969 -1.2222
 8359SOL     OW26517   5.725   3.869  10.399 -0.1121 -1.0161 -0.5525
 8359SOL    HW126518   5.643   3.908  10.432 -0.4936 -1.8514 -0.4868
 8359SOL    HW226519   5.696   3.800  10.340  0.5448  1.0611 -3.5257
 8360SOL     OW26520   4.214   1.095   8.026  0.0841  0.0831  0.1217
 8360SOL    HW126521   4.284   1.042   8.062  0.2109  1.1576  1.5149
 8360SOL    HW226522   4.228   1.183   8.061  0.3458  1.2974 -2.7374
 8361SOL     OW26523   2.957   5.384   5.460 -0.3267 -0.5775  0.0020
 8361SOL    HW126524   2.864   5.363   5.470 -0.2455 -0.4629  1.1288
 8361SOL    HW226525   3.002   5.300   5.473 -0.2954 -0.7202 -1.0111
 8362SOL     OW26526   3.918   3.741  10.642  0.6298  0.0889 -0.2917
 8362SOL    HW126527   3.912   3.781  10.555 -2.5908  1.6040  0.4810
 8362SOL    HW226528   3.902   3.648  10.626  0.3587  0.3015 -1.3707
 8363SOL     OW26529   2.394   0.608  10.327 -0.6388 -0.1011 -0.0374
 8363SOL    HW126530   2.424   0.688  10.371  0.1043 -0.3593 -0.0670
 8363SOL    HW226531   2.454   0.595  10.255 -0.7982 -0.6518 -0.0789
 8364SOL     OW26532   3.706   0.266   1.154 -0.7659  0.5350 -0.0557
 8364SOL    HW126533   3.705   0.295   1.063  1.4697 -0.8768 -0.6291
 8364SOL    HW226534   3.746   0.339   1.202 -0.3003  0.6069 -0.5380
 8365SOL     OW26535   5.099   4.948   3.026  0.1830 -0.2999  0.3436
 8365SOL    HW126536   5.144   5.032   3.032 -0.5377  0.0919  0.2635
 8365SOL    HW226537   5.048   4.942   3.106  0.5780 -0.8758  0.5667
 8366SOL     OW26538   5.118   5.623   6.100 -0.9268 -0.0544  0.0016
 8366SOL    HW126539   5.070   5.573   6.166  1.6369 -1.1588  1.1643
 8366SOL    HW226540   5.193   5.659   6.148 -0.0142  0.7160 -1.9121
 8367SOL     OW26541   0.474   0.235  12.213  0.1368  0.4634 -0.1278
 8367SOL    HW126542   0.431   0.268  12.134  0.4942  0.3037 -0.3970
 8367SOL    HW226543   0.441   0.146  12.223 -0.3723  0.6950  0.2545
 8368SOL     OW26544   4.604   4.638  10.846 -0.2211 -0.3010  0.0593
 8368SOL    HW126545   4.539   4.665  10.780 -0.3560 -0.4321  0.1400
 8368SOL    HW226546   4.578   4.549  10.870 -1.2355  0.3762  1.6030
 8369SOL     OW26547   1.006   0.152   8.481  0.2712  0.2281  0.0157
 8369SOL    HW126548   1.012   0.246   8.496  1.3189  0.0605  0.7129
 8369SOL    HW226549   0.919   0.129   8.514 -0.3880  1.0951 -1.0607
 8370SOL     OW26550   4.433   4.922   2.371 -0.4465 -0.1740  0.4434
 8370SOL    HW126551   4.488   4.879   2.437 -0.1175 -2.8916 -1.4112
 8370SOL    HW226552   4.448   5.015   2.385  3.9415 -0.6710  0.6976
 8371SOL     OW26553   1.456   6.276   4.304  0.1059 -0.0757  0.3357
 8371SOL    HW126554   1.498   6.346   4.354 -1.5102 -0.1626  1.9116
 8371SOL    HW226555   1.520   6.254   4.236  1.3239  1.8176  0.7696
 8372SOL     OW26556   2.447   0.842   6.187 -0.1640 -0.3277 -0.1684
 8372SOL    HW126557   2.388   0.778   6.147 -0.8901 -0.2471  0.7444
 8372SOL    HW226558   2.432   0.923   6.139 -0.4966 -0.4108 -0.2062
 8373SOL     OW26559   4.196   0.164   7.225  0.2522  0.6179  0.2797
 8373SOL    HW126560   4.142   0.232   7.265  0.3054  0.1920  1.0865
 8373SOL    HW226561   4.254   0.134   7.295  1.0615  0.5781 -0.3857
 8374SOL     OW26562   6.620   4.434   4.990  0.5629  0.1317  0.3673
 8374SOL    HW126563   6.579   4.428   4.904 -0.1102 -1.0505  0.7385
 8374SOL    HW226564   6.592   4.519   5.024  1.2106  0.8119 -0.7429
 8375SOL     OW26565   6.329   4.403   3.857 -0.2076 -0.1470 -0.1407
 8375SOL    HW126566   6.392   4.421   3.926  0.3301  3.0354 -1.3019
 8375SOL    HW226567   6.280   4.327   3.888  1.1994  0.0350  2.8499
 8376SOL     OW26568   1.506   6.438   0.273 -0.0875 -0.1844  0.1595
 8376SOL    HW126569   1.474   6.468   0.358  1.7175 -1.7703  1.5023
 8376SOL    HW226570   1.436   6.383   0.239  0.2762 -1.9711  2.0836
 8377SOL     OW26571   2.830   5.992  11.994 -0.6154  0.4313 -0.7062
 8377SOL    HW126572   2.753   6.032  11.955 -0.5711  2.0668  0.7629
 8377SOL    HW226573   2.803   5.971  12.083 -0.2788 -1.8695 -1.0858
 8378SOL     OW26574   4.558   1.135   9.456 -0.3317 -0.1047  0.0980
 8378SOL    HW126575   4.524   1.152   9.368  0.1346 -0.3120 -0.1267
 8378SOL    HW226576   4.508   1.193   9.513 -0.3751  0.3111 -0.3577
 8379SOL     OW26577   2.971   0.725   8.766  0.2025 -0.1516  0.2833
 8379SOL    HW126578   2.882   0.733   8.801  0.3176 -0.0550  0.5637
 8379SOL    HW226579   3.004   0.643   8.804  0.6126  0.3604  1.0688
 8380SOL     OW26580   3.440   0.040   0.807  0.0055  0.5445 -0.1311
 8380SOL    HW126581   3.412  -0.039   0.761 -0.5326  1.1910 -0.9508
 8380SOL    HW226582   3.496   0.086   0.745  0.7916  0.5359  0.5524
 8381SOL     OW26583   0.909   7.054  12.336  0.3660 -0.2390 -0.0148
 8381SOL    HW126584   0.945   6.968  12.356  0.8480 -0.0123  0.1178
 8381SOL    HW226585   0.816   7.047  12.358  0.5873 -0.4522  0.8905
 8382SOL     OW26586   7.799   4.294  10.365 -0.3605 -0.2258 -0.5056
 8382SOL    HW126587   7.767   4.209  10.393 -0.2811 -0.7052 -1.8035
 8382SOL    HW226588   7.721   4.342  10.338 -0.3010 -0.2735 -0.7665
 8383SOL     OW26589   1.014   0.362  11.318  0.0916  0.3669  0.0939
 8383SOL    HW126590   0.984   0.366  11.409  0.0368  0.2592  0.0813
 8383SOL    HW226591   1.062   0.280  11.312  0.4351  0.5607  0.1265
 8384SOL     OW26592   6.881   2.580  12.005 -0.2174  0.5025 -0.2701
 8384SOL    HW126593   6.837   2.543  11.929  3.0073 -1.1062 -1.5241
 8384SOL    HW226594   6.905   2.669  11.978 -1.4798  0.9409 -0.0280
 8385SOL     OW26595   7.404   0.340   4.048 -0.2206  0.0182 -0.0475
 8385SOL    HW126596   7.478   0.325   4.107 -1.3876 -0.3276  1.3858
 8385SOL    HW226597   7.434   0.306   3.964  0.6973 -1.5780  0.8614
 8386SOL     OW26598   1.713   4.987   5.314  0.1835  0.1843  0.0052
 8386SOL    HW126599   1.662   5.052   5.362 -0.9721 -1.0454  0.4959
 8386SOL    HW226600   1.686   5.000   5.222 -1.0598 -0.4549  0.2559
 8387SOL     OW26601   6.505   6.185   1.431  0.2663  0.3560 -0.0910
 8387SOL    HW126602   6.540   6.229   1.508  1.5186 -0.4431 -0.1785
 8387SOL    HW226603   6.415   6.161   1.455  0.2809  1.0854  0.7090
 8388SOL     OW26604   4.364   7.411   4.872  0.2578 -0.1421  0.1095
 8388SOL    HW126605   4.356   7.390   4.966  2.2108 -2.1743 -0.0951
 8388SOL    HW226606   4.313   7.343   4.828  2.4537 -1.6026 -0.3683
 8389SOL     OW26607   3.275   7.041   8.461  0.0660  0.3448 -0.5518
 8389SOL    HW126608   3.211   6.972   8.444 -0.2413  1.1085 -3.0165
 8389SOL    HW226609   3.224   7.122   8.460  0.6890  0.7684  0.3734
 8390SOL     OW26610   6.131   1.726   7.074 -0.2776 -0.3414 -0.0866
 8390SOL    HW126611   6.169   1.737   7.162 -1.0499  1.1802  0.0846
 8390SOL    HW226612   6.151   1.636   7.051  0.7242 -0.5071  1.2864
 8391SOL     OW26613   7.635   5.567   4.888  0.0356 -0.0197 -0.1796
 8391SOL    HW126614   7.680   5.612   4.817  1.1328  0.5529  0.8405
 8391SOL    HW226615   7.706   5.529   4.940 -0.6993  0.1806  1.0010
 8392SOL     OW26616   1.802   7.294  12.131  0.1263 -0.1751 -0.8051
 8392SOL    HW126617   1.884   7.248  12.117 -0.4219 -1.2772 -0.5177
 8392SOL    HW226618   1.739   7.225  12.152 -0.8458  0.6563 -0.9008
 8393SOL     OW26619   3.911   3.840   2.825 -0.1897  0.3943 -1.1490
 8393SOL    HW126620   3.910   3.932   2.799 -0.3169  0.7427  0.0247
 8393SOL    HW226621   3.885   3.841   2.917 -2.6081 -1.0247 -1.7242
 8394SOL     OW26622   2.050   0.323   9.383  0.2649 -0.7117 -0.0759
 8394SOL    HW126623   2.010   0.337   9.469  1.3521 -0.0197  0.3240
 8394SOL    HW226624   2.137   0.290   9.402  0.0346 -1.8844 -0.9438
 8395SOL     OW26625   5.162   2.805   1.190 -0.1157  0.1538  0.0400
 8395SOL    HW126626   5.117   2.833   1.111 -0.0997 -0.9087 -0.3679
 8395SOL    HW226627   5.224   2.875   1.208 -0.6128  0.7402 -0.4791
 8396SOL     OW26628   1.247   5.724   9.450 -0.2681 -0.4511  0.3021
 8396SOL    HW126629   1.325   5.679   9.418  0.3698  1.0580 -0.3515
 8396SOL    HW226630   1.174   5.668   9.423  0.5328 -1.5362  0.3174
 8397SOL     OW26631   5.885   3.485   5.033  0.0773  0.1794 -0.4421
 8397SOL    HW126632   5.883   3.392   5.053 -1.0997  0.4055  0.5972
 8397SOL    HW226633   5.886   3.489   4.937  1.4100 -0.8881 -0.5056
 8398SOL     OW26634   0.446   2.983   9.917  0.1536 -0.1498  0.1362
 8398SOL    HW126635   0.437   3.032   9.836 -1.6482 -0.6293 -0.0022
 8398SOL    HW226636   0.539   2.963   9.923  0.2744 -0.4245 -2.0185
 8399SOL     OW26637   6.476   6.112   6.796 -0.0832  0.2688  0.8894
 8399SOL    HW126638   6.455   6.029   6.755  0.7699  0.1162  0.7646
 8399SOL    HW226639   6.532   6.090   6.870  2.4921  0.9085 -0.7471
 8400SOL     OW26640   1.167   2.001   2.752  0.6224 -0.0282 -0.5492
 8400SOL    HW126641   1.088   1.968   2.708  0.5527 -1.0193  0.2912
 8400SOL    HW226642   1.222   2.034   2.681 -1.5402  3.0234 -1.0276
 8401SOL     OW26643   2.130   0.221  10.057 -0.0045 -0.0372 -0.5800
 8401SOL    HW126644   2.162   0.139  10.018  2.0333 -0.3359  1.4771
 8401SOL    HW226645   2.061   0.193  10.117  0.1943 -0.1791 -0.4134
 8402SOL     OW26646   2.601   5.359   8.731  0.0421 -0.4926 -0.2787
 8402SOL    HW126647   2.608   5.285   8.671 -1.1881  0.3297 -1.4822
 8402SOL    HW226648   2.597   5.436   8.674  0.0915  0.4197  0.9102
 8403SOL     OW26649   7.390   4.212   6.157 -0.2952  0.3096  0.0107
 8403SOL    HW126650   7.404   4.166   6.074 -1.9539 -0.0202 -0.1206
 8403SOL    HW226651   7.375   4.303   6.131 -0.4761  0.2700 -0.0252
 8404SOL     OW26652   4.346   7.741   8.727  0.3942 -0.5134  0.2139
 8404SOL    HW126653   4.423   7.686   8.712  1.0082  0.7370 -1.6038
 8404SOL    HW226654   4.301   7.701   8.802  1.5832 -2.5913 -0.1215
 8405SOL     OW26655   6.311   5.502   0.719 -0.1059  0.0023  0.3161
 8405SOL    HW126656   6.216   5.494   0.709 -0.0704  0.7956 -0.9087
 8405SOL    HW226657   6.344   5.507   0.629  1.1365 -0.5818  0.7124
 8406SOL     OW26658   2.414   1.572   9.781 -0.1730 -0.2600 -0.1531
 8406SOL    HW126659   2.437   1.501   9.841 -1.1644  0.9184  1.6965
 8406SOL    HW226660   2.495   1.622   9.771  0.2066 -0.9262 -0.4711
 8407SOL     OW26661   4.522   0.455   2.651  0.0796  0.2813  0.1696
 8407SOL    HW126662   4.446   0.418   2.606  1.8059 -2.2651 -0.9056
 8407SOL    HW226663   4.522   0.412   2.737  0.8682 -0.6342 -0.2613
 8408SOL     OW26664   5.667   3.532   5.439 -0.1227  0.2104 -0.1223
 8408SOL    HW126665   5.717   3.451   5.447 -0.4511  0.0097 -0.0855
 8408SOL    HW226666   5.623   3.542   5.523 -0.0065  0.4767 -0.0937
 8409SOL     OW26667   4.898   0.663   7.009 -0.4296  0.2217 -0.3270
 8409SOL    HW126668   4.928   0.673   7.100  0.1225  0.3808 -0.5218
 8409SOL    HW226669   4.942   0.732   6.961  0.7497 -0.9858 -1.0636
 8410SOL     OW26670   7.930   2.121   9.875 -0.0843  0.3401  0.2311
 8410SOL    HW126671   7.877   2.137   9.796 -0.6497  1.0821  0.7367
 8410SOL    HW226672   7.906   2.193   9.934  0.5864 -0.0111  0.9474
 8411SOL     OW26673   6.103   2.630   0.943 -0.2453  0.2315  0.3387
 8411SOL    HW126674   6.189   2.597   0.969  1.3884  2.1959 -2.0845
 8411SOL    HW226675   6.070   2.564   0.881  1.3233  1.1907 -1.6408
 8412SOL     OW26676   2.258   0.772   1.793 -0.3441  0.2020 -0.5532
 8412SOL    HW126677   2.247   0.694   1.847 -0.1094  0.3911 -0.2307
 8412SOL    HW226678   2.345   0.762   1.755 -0.6245 -0.0756 -1.1354
 8413SOL     OW26679   1.822   4.274   6.732  0.1918  0.0471 -0.4088
 8413SOL    HW126680   1.858   4.193   6.695  0.6734 -0.7147  1.5895
 8413SOL    HW226681   1.730   4.273   6.706 -0.1722 -1.9003  0.7280
 8414SOL     OW26682   7.631   1.600   3.582 -0.4400 -0.5364  0.0244
 8414SOL    HW126683   7.659   1.690   3.596  0.4220 -0.9623  1.2334
 8414SOL    HW226684   7.537   1.606   3.564 -0.7782  0.4711  1.9127
 8415SOL     OW26685   3.480   0.340   8.703 -0.1989  0.7019 -0.3849
 8415SOL    HW126686   3.459   0.288   8.781  1.7445  0.4543  0.0512
 8415SOL    HW226687   3.568   0.373   8.721  0.2053  0.8285 -2.3819
 8416SOL     OW26688   7.141   4.334   8.909  0.0796 -0.6644 -0.1829
 8416SOL    HW126689   7.205   4.375   8.967 -0.0250  0.1439 -0.6321
 8416SOL    HW226690   7.057   4.346   8.953 -0.4346  2.5108 -1.7603
 8417SOL     OW26691   7.013   2.361  10.818  0.6874 -0.5334 -0.3724
 8417SOL    HW126692   6.983   2.271  10.830 -1.3773  0.1897  0.2861
 8417SOL    HW226693   6.990   2.405  10.900 -0.0252  1.0236 -1.3718
 8418SOL     OW26694   1.331   4.153   9.663 -0.3225 -0.0796  0.4675
 8418SOL    HW126695   1.408   4.097   9.671 -1.5898 -2.0025 -0.0546
 8418SOL    HW226696   1.283   4.141   9.745 -0.7827 -0.0316  0.2085
 8419SOL     OW26697   0.083   4.860   7.182  0.3145  0.0375  0.3820
 8419SOL    HW126698   0.051   4.945   7.212 -0.1651 -0.2024  0.5565
 8419SOL    HW226699   0.157   4.881   7.125 -0.0728  0.6005  0.0723
 8420SOL     OW26700   1.100   3.873  10.635  0.3293  0.4251  0.2660
 8420SOL    HW126701   1.027   3.862  10.574  0.3757  0.7048  0.1623
 8420SOL    HW226702   1.166   3.920  10.586  1.5270 -1.7974 -0.4136
 8421SOL     OW26703   5.136   6.707  11.178 -0.7095  0.6578 -0.0319
 8421SOL    HW126704   5.069   6.639  11.176 -1.0814  1.0200 -0.0634
 8421SOL    HW226705   5.100   6.776  11.122  0.0037  0.5645 -0.6286
 8422SOL     OW26706   4.734   4.707   7.067  0.2612  0.9036  0.2152
 8422SOL    HW126707   4.766   4.639   7.007  1.0160  0.1186  1.4682
 8422SOL    HW226708   4.712   4.660   7.147  1.0048  2.1682  1.1950
 8423SOL     OW26709   1.955   2.127   4.142 -0.0269  0.0984  0.4524
 8423SOL    HW126710   2.028   2.154   4.199  0.8470 -0.4617 -0.3838
 8423SOL    HW226711   1.978   2.161   4.056 -2.2475  2.6031  0.7186
 8424SOL     OW26712   4.872   5.705   0.445  0.2756  0.1398 -0.7127
 8424SOL    HW126713   4.895   5.703   0.538  0.8261  2.0263 -0.7601
 8424SOL    HW226714   4.793   5.652   0.439  0.1963  0.0294  0.8474
 8425SOL     OW26715   4.259   5.730   2.955  0.2937  0.2871 -0.1776
 8425SOL    HW126716   4.310   5.654   2.983 -1.8612 -0.7153  1.3196
 8425SOL    HW226717   4.246   5.717   2.861  1.1044 -0.4510 -0.2004
 8426SOL     OW26718   1.926   3.617   2.665  0.1321 -0.0869  0.6662
 8426SOL    HW126719   1.897   3.687   2.607 -0.4414 -0.6467  0.2566
 8426SOL    HW226720   1.897   3.536   2.622  1.3408 -0.6262  0.7960
 8427SOL     OW26721   1.054   6.131   1.930  0.0840  0.4794 -0.4295
 8427SOL    HW126722   0.982   6.122   1.867  0.2088  2.2507 -0.8972
 8427SOL    HW226723   1.012   6.122   2.015 -0.3848 -0.2473 -0.7264
 8428SOL     OW26724   1.923   3.197  10.706 -0.4898  0.5086 -0.1855
 8428SOL    HW126725   1.915   3.142  10.628  0.6985  2.0612 -1.4669
 8428SOL    HW226726   1.986   3.151  10.762  0.0966  0.3173 -0.9974
 8429SOL     OW26727   4.160   3.397  12.414  0.4083 -0.1708 -0.4425
 8429SOL    HW126728   4.210   3.401  12.332  1.3980  0.3839  0.1729
 8429SOL    HW226729   4.204   3.329  12.465 -0.0653 -0.3492 -0.2598
 8430SOL     OW26730   3.789   5.106   1.705 -0.7977  0.4270  0.2930
 8430SOL    HW126731   3.729   5.057   1.762 -0.7402 -1.0583 -0.8842
 8430SOL    HW226732   3.771   5.074   1.617 -0.2456  2.0321 -0.4412
 8431SOL     OW26733   5.962   3.753   9.358 -0.1741  0.0741  0.7567
 8431SOL    HW126734   5.994   3.676   9.311 -0.3627 -1.9591  3.6680
 8431SOL    HW226735   5.870   3.735   9.376 -0.1718  0.8563  1.6881
 8432SOL     OW26736   7.451   3.482   6.853  0.1538 -0.4259  0.3040
 8432SOL    HW126737   7.429   3.389   6.842 -0.0563 -0.3595  0.1681
 8432SOL    HW226738   7.455   3.516   6.763  0.5909 -0.3884  0.3369
 8433SOL     OW26739   4.149   4.665   2.000  0.1881  0.1363  0.5856
 8433SOL    HW126740   4.115   4.738   2.052  0.1746 -0.2150  1.0809
 8433SOL    HW226741   4.225   4.634   2.049  2.1274  1.7820 -1.1914
 8434SOL     OW26742   4.122   3.836   9.882 -0.6518  0.4776  0.2014
 8434SOL    HW126743   4.204   3.796   9.853 -1.1782  1.0281 -2.2794
 8434SOL    HW226744   4.106   3.906   9.818 -2.6629  0.9002  1.0965
 8435SOL     OW26745   6.197   1.698   4.513 -0.1375 -0.1373 -0.1362
 8435SOL    HW126746   6.216   1.654   4.595 -0.4817 -1.4428 -0.7406
 8435SOL    HW226747   6.204   1.630   4.446 -0.7580  0.7030 -1.0903
 8436SOL     OW26748   4.204   2.129   5.336 -0.4851 -0.1277 -0.3229
 8436SOL    HW126749   4.235   2.144   5.425  0.9911  0.4817 -0.9089
 8436SOL    HW226750   4.164   2.213   5.310 -0.9029 -0.3006 -0.2549
 8437SOL     OW26751   6.583   2.151   8.986  0.4045  0.6971  0.0463
 8437SOL    HW126752   6.511   2.167   9.048  1.2140 -0.2180  1.2773
 8437SOL    HW226753   6.636   2.230   8.991 -0.9223  1.7650 -1.5370
 8438SOL     OW26754   1.954   5.155   0.889  0.0831  1.0662 -0.3331
 8438SOL    HW126755   1.998   5.085   0.937  0.7073  1.9309  0.3896
 8438SOL    HW226756   1.862   5.147   0.914  0.4571  1.7898  1.4350
 8439SOL     OW26757   2.471   2.924   1.868  0.4312 -0.4032  0.4309
 8439SOL    HW126758   2.460   2.987   1.939  0.3306 -0.8690  0.8290
 8439SOL    HW226759   2.565   2.907   1.864  0.5085  0.0967  0.0387
 8440SOL     OW26760   6.774   5.501   1.048  0.0671  0.4467  0.2103
 8440SOL    HW126761   6.718   5.533   0.977 -0.1998  0.5302  0.4559
 8440SOL    HW226762   6.717   5.442   1.098  0.3806  0.0535  0.1070
 8441SOL     OW26763   7.460   0.120   0.069 -0.0448 -0.3394 -0.1782
 8441SOL    HW126764   7.534   0.175   0.042 -0.7426  0.5639 -0.3136
 8441SOL    HW226765   7.493   0.072   0.145  0.5084  0.4637  0.1092
 8442SOL     OW26766   4.113   6.685   7.200  0.3697  0.0461  0.0665
 8442SOL    HW126767   4.022   6.657   7.191 -0.1513  1.5853  0.2353
 8442SOL    HW226768   4.146   6.688   7.110  0.3939 -0.8876  0.0317
 8443SOL     OW26769   7.097   0.356   9.931 -0.4029 -0.0540  0.4694
 8443SOL    HW126770   7.076   0.404   9.852  1.9387  1.3838  0.6325
 8443SOL    HW226771   7.146   0.280   9.901  1.6783  1.1906  0.5152
 8444SOL     OW26772   6.593   3.695   6.112  0.2171  0.0011  0.0187
 8444SOL    HW126773   6.684   3.724   6.122  0.6846 -1.8256  1.5125
 8444SOL    HW226774   6.598   3.616   6.059 -0.6842  0.6350 -1.0625
 8445SOL     OW26775   2.777   5.879  11.508 -0.0999 -0.1540 -0.0528
 8445SOL    HW126776   2.705   5.840  11.557 -1.1588  0.7108 -0.8784
 8445SOL    HW226777   2.849   5.817  11.519 -0.6593 -0.5683  1.5824
 8446SOL     OW26778   2.872   7.800   7.740  0.1659 -0.1607 -0.5001
 8446SOL    HW126779   2.780   7.774   7.735  0.5744 -1.4367 -1.9570
 8446SOL    HW226780   2.919   7.731   7.694  1.5755  1.9455 -2.4320
 8447SOL     OW26781   3.285   6.914  12.019 -0.2196  0.0573 -0.2450
 8447SOL    HW126782   3.208   6.947  11.973  0.5982  1.2359 -0.8564
 8447SOL    HW226783   3.255   6.837  12.067 -1.6990  0.3445 -0.6778
 8448SOL     OW26784   7.195   3.481   5.623 -0.3230 -0.2398  0.2113
 8448SOL    HW126785   7.262   3.475   5.555 -0.8411 -1.5710 -0.2239
 8448SOL    HW226786   7.118   3.515   5.577 -0.8285 -1.6323 -0.0263
 8449SOL     OW26787   6.426   5.528   8.803 -0.6671  0.5186 -0.1118
 8449SOL    HW126788   6.479   5.525   8.724  0.8624  2.3555  0.7459
 8449SOL    HW226789   6.395   5.619   8.808 -0.6999  0.4598  1.3829
 8450SOL     OW26790   3.473   7.766   7.907  0.6319  0.2020  0.1627
 8450SOL    HW126791   3.535   7.704   7.868  0.4330  0.4031 -0.4791
 8450SOL    HW226792   3.529   7.834   7.945  0.8291  1.9513 -2.9538
 8451SOL     OW26793   4.918   0.644   8.308 -0.1122  0.3141 -0.0597
 8451SOL    HW126794   4.965   0.682   8.234 -1.7809  2.3636 -0.1506
 8451SOL    HW226795   4.848   0.592   8.268  0.5533 -0.7311  0.0959
 8452SOL     OW26796   4.094   5.010   8.069  0.4397  0.2927  0.1187
 8452SOL    HW126797   4.073   5.013   8.163  0.9736  0.4487  0.2371
 8452SOL    HW226798   4.053   5.090   8.034 -2.8063 -1.4576 -0.4616
 8453SOL     OW26799   5.580   1.439   2.774  0.2141 -0.5805 -0.0429
 8453SOL    HW126800   5.646   1.372   2.756  0.5968  0.0694 -1.1802
 8453SOL    HW226801   5.574   1.442   2.870  0.3134 -2.0921  0.0322
 8454SOL     OW26802   4.719   4.882   4.271  0.1523 -0.1871 -0.0060
 8454SOL    HW126803   4.774   4.804   4.283  2.3816  1.3871  0.5781
 8454SOL    HW226804   4.748   4.943   4.338 -2.2780  0.8226  0.2430
 8455SOL     OW26805   5.458   2.365   0.890 -0.3116  0.3757  0.3233
 8455SOL    HW126806   5.407   2.319   0.824 -2.2196  1.0002  1.2867
 8455SOL    HW226807   5.396   2.426   0.930  1.5683  2.2145  0.5973
 8456SOL     OW26808   7.101   2.195   2.762  0.4244 -0.1446 -0.6533
 8456SOL    HW126809   7.090   2.192   2.857  0.6804  0.0292 -0.6188
 8456SOL    HW226810   7.146   2.278   2.745 -0.0673  0.0611 -0.9716
 8457SOL     OW26811   1.516   3.184   9.679  0.2296  0.5971 -0.1289
 8457SOL    HW126812   1.590   3.170   9.737 -0.7122 -1.2538  0.7118
 8457SOL    HW226813   1.550   3.165   9.592  0.7212 -0.3998  0.2652
 8458SOL     OW26814   5.622   6.430  10.279 -0.1312  0.1391 -0.7548
 8458SOL    HW126815   5.545   6.379  10.304  0.1295  0.4384  0.7693
 8458SOL    HW226816   5.635   6.491  10.351  2.2948 -0.7687 -0.3244
 8459SOL     OW26817   0.769   0.517   8.739 -0.4324  0.2418  0.2159
 8459SOL    HW126818   0.801   0.591   8.688 -2.4993  0.4397 -0.8970
 8459SOL    HW226819   0.847   0.464   8.757  0.6037  1.0418 -1.7019
 8460SOL     OW26820   5.639   3.227   5.695  0.2075  0.0339  0.1054
 8460SOL    HW126821   5.681   3.148   5.729 -1.1674 -0.3360  1.0061
 8460SOL    HW226822   5.546   3.216   5.715 -0.1195  1.5362 -0.4430
 8461SOL     OW26823   3.032   0.271   2.460  0.0674 -0.2299 -0.4152
 8461SOL    HW126824   3.038   0.182   2.494  0.7682 -0.4247 -1.0019
 8461SOL    HW226825   3.112   0.313   2.491 -1.1081  0.7845  1.4125
 8462SOL     OW26826   6.321   1.589   7.989  0.0093 -0.2560 -0.3375
 8462SOL    HW126827   6.402   1.605   7.940  0.3665 -1.1616 -0.0576
 8462SOL    HW226828   6.309   1.494   7.987 -0.9524 -0.1531 -0.2106
 8463SOL     OW26829   4.578   1.555   8.687 -0.0309  0.2356  0.2770
 8463SOL    HW126830   4.613   1.544   8.599 -0.2017  0.5444  0.1656
 8463SOL    HW226831   4.485   1.574   8.673 -0.3880 -1.2108  0.5937
 8464SOL     OW26832   7.178   7.428   6.805 -0.1689 -0.4080 -0.0738
 8464SOL    HW126833   7.114   7.381   6.752 -0.4496  0.0599 -0.1470
 8464SOL    HW226834   7.172   7.386   6.892 -1.4305  0.4213  0.2593
 8465SOL     OW26835   5.674   2.806  10.290  0.3863  0.2506 -0.1478
 8465SOL    HW126836   5.637   2.718  10.299 -1.1063  0.9021  0.5371
 8465SOL    HW226837   5.755   2.804  10.341  0.5711 -0.8223 -0.4603
 8466SOL     OW26838   6.612   1.548  12.128 -0.1978  0.3024 -0.2779
 8466SOL    HW126839   6.626   1.586  12.215 -0.1010 -1.6463  0.6170
 8466SOL    HW226840   6.521   1.520  12.129 -0.2670  0.5049 -0.9079
 8467SOL     OW26841   1.550   7.423   9.881  0.3556 -0.1635  0.3443
 8467SOL    HW126842   1.462   7.389   9.868  0.6058 -0.5226 -0.5347
 8467SOL    HW226843   1.604   7.373   9.819  1.1072  0.2989  0.6127
 8468SOL     OW26844   6.004   2.769   9.942 -0.2736 -0.0021  0.0967
 8468SOL    HW126845   6.060   2.745   9.868  0.5418 -0.2367  0.7844
 8468SOL    HW226846   5.941   2.831   9.905 -2.2520 -2.8134 -1.7023
 8469SOL     OW26847   3.490   3.883   7.559  0.1345 -0.3471  0.6349
 8469SOL    HW126848   3.452   3.971   7.564 -0.9818 -0.5895 -2.0477
 8469SOL    HW226849   3.581   3.895   7.586 -0.0889  1.5706  0.6561
 8470SOL     OW26850   1.952   3.626   6.597  0.7055  0.3456 -0.5262
 8470SOL    HW126851   1.878   3.618   6.536 -1.1169  1.1655  1.4800
 8470SOL    HW226852   1.979   3.718   6.590  0.8148  0.3207 -0.4339
 8471SOL     OW26853   3.141   0.306   4.862 -0.2901 -0.2602  1.0262
 8471SOL    HW126854   3.177   0.249   4.794  0.7859  1.3816  0.1361
 8471SOL    HW226855   3.178   0.274   4.944  1.1866 -0.1897  0.4185
 8472SOL     OW26856   0.458   2.040   9.024 -0.0855 -0.1736  0.1653
 8472SOL    HW126857   0.527   1.999   9.076 -0.2025 -0.4037  0.1426
 8472SOL    HW226858   0.386   1.977   9.026  1.1167 -1.9541 -3.1997
 8473SOL     OW26859   3.055   6.611   8.191  0.1763  0.1151  0.3432
 8473SOL    HW126860   2.992   6.557   8.144 -1.4251  1.8068  0.4614
 8473SOL    HW226861   3.093   6.668   8.124  0.0583  0.4990  0.5939
 8474SOL     OW26862   6.841   1.934   0.438 -0.2421 -0.1854 -0.6575
 8474SOL    HW126863   6.761   1.950   0.387 -1.6052 -0.9701  1.1479
 8474SOL    HW226864   6.885   2.019   0.440 -1.7307  0.6150 -0.5577
 8475SOL     OW26865   4.159   0.972   5.127 -0.1705 -0.4168 -0.2326
 8475SOL    HW126866   4.133   1.030   5.199 -0.8189 -2.3635  1.1815
 8475SOL    HW226867   4.188   1.032   5.058  0.5642  1.5352  1.6497
 8476SOL     OW26868   4.361   7.701   9.643  0.1706 -0.0518 -0.4390
 8476SOL    HW126869   4.405   7.779   9.676  0.9878  0.8977 -3.4499
 8476SOL    HW226870   4.297   7.734   9.580 -2.0792 -1.6770  0.8393
 8477SOL     OW26871   3.329   6.545   2.111 -0.2637 -1.0017 -0.1636
 8477SOL    HW126872   3.275   6.550   2.189  0.2687 -1.7249  0.2620
 8477SOL    HW226873   3.285   6.601   2.047 -0.4503 -0.0178  0.8022
 8478SOL     OW26874   1.994   3.871  10.736  0.0661  0.5606 -0.1061
 8478SOL    HW126875   2.075   3.921  10.727  1.1950 -1.2079 -0.1570
 8478SOL    HW226876   1.943   3.918  10.802  0.2936  2.7317 -1.4005
 8479SOL     OW26877   0.313   3.991   9.212  0.1727 -0.8303  0.3619
 8479SOL    HW126878   0.253   3.922   9.240  0.3550 -1.9162 -1.7642
 8479SOL    HW226879   0.398   3.948   9.204  0.2452 -0.4467 -1.2065
 8480SOL     OW26880   5.913   4.961  12.093  0.5393  0.4206  0.2165
 8480SOL    HW126881   5.935   4.870  12.074 -1.2762  0.4399 -2.6086
 8480SOL    HW226882   5.949   5.011  12.020  1.7509  2.1014  1.8459
 8481SOL     OW26883   5.905   5.019   0.797 -0.4791 -0.9414 -0.3614
 8481SOL    HW126884   5.903   5.018   0.893  0.3620 -3.8295 -0.2568
 8481SOL    HW226885   5.850   5.093   0.772 -2.2911 -1.2430  2.3384
 8482SOL     OW26886   6.849   1.238   7.385  0.2574 -0.3064 -0.0488
 8482SOL    HW126887   6.850   1.284   7.301 -1.5084  1.4884  0.8196
 8482SOL    HW226888   6.790   1.164   7.370  0.3856 -0.3163 -0.5399
 8483SOL     OW26889   0.942   1.658  11.110  0.6718  0.1809  0.0767
 8483SOL    HW126890   0.888   1.718  11.059 -0.2715 -0.5126  0.2259
 8483SOL    HW226891   0.925   1.681  11.201  2.1525  1.2451  0.1175
 8484SOL     OW26892   0.095   4.219   1.673 -0.1548  0.3103 -0.0483
 8484SOL    HW126893   0.030   4.249   1.609 -0.6402  0.8647  0.6897
 8484SOL    HW226894   0.156   4.293   1.681  0.1244  0.0915 -0.1613
 8485SOL     OW26895   3.998   5.193   7.093 -0.3533 -0.0491 -0.5579
 8485SOL    HW126896   4.037   5.227   7.174 -0.7317 -1.1227  0.1120
 8485SOL    HW226897   4.034   5.248   7.024 -0.3815  1.2075  0.3836
 8486SOL     OW26898   6.156   3.231   3.068 -0.1229 -0.0974  0.0485
 8486SOL    HW126899   6.207   3.174   3.125  1.0594  1.4005  0.5793
 8486SOL    HW226900   6.135   3.307   3.123 -0.4279  0.6165 -1.0183
 8487SOL     OW26901   2.554   1.211   1.351 -0.0599 -0.4840 -0.0857
 8487SOL    HW126902   2.471   1.205   1.303  0.3584 -0.0078 -0.8784
 8487SOL    HW226903   2.610   1.266   1.296  0.2944  0.4232  1.1536
 8488SOL     OW26904   2.253   3.791   8.895 -0.3405  0.5982  0.0682
 8488SOL    HW126905   2.270   3.826   8.983  0.2993 -0.1474  0.2518
 8488SOL    HW226906   2.211   3.706   8.911  0.0299  0.3323 -0.3365
 8489SOL     OW26907   6.595   3.412   8.827  0.1640  0.3377  0.6816
 8489SOL    HW126908   6.529   3.345   8.846  0.1614  0.6302  1.7847
 8489SOL    HW226909   6.642   3.378   8.750  0.2463 -0.9880  1.2858
 8490SOL     OW26910   5.013   1.136   6.971 -0.0336  0.4184 -0.4684
 8490SOL    HW126911   5.037   1.212   6.919  1.5675  0.8234  0.7712
 8490SOL    HW226912   5.073   1.138   7.046 -0.6126 -1.5100  0.1124
 8491SOL     OW26913   5.894   1.684   2.944 -0.4211 -0.2174 -0.3664
 8491SOL    HW126914   5.983   1.649   2.938  0.3386  1.4854  0.2702
 8491SOL    HW226915   5.898   1.767   2.897 -1.2363  0.6583  1.0576
 8492SOL     OW26916   7.615   4.962   4.269  0.2485  0.2107  0.2376
 8492SOL    HW126917   7.546   5.028   4.260 -0.1062 -0.0975  0.6374
 8492SOL    HW226918   7.568   4.878   4.264  0.5693 -0.0012  0.7296
 8493SOL     OW26919   7.404   0.470   6.451 -0.1666  0.0039 -0.7186
 8493SOL    HW126920   7.321   0.509   6.479 -0.2088  0.4935 -1.5130
 8493SOL    HW226921   7.406   0.482   6.356  0.3617 -0.8886 -0.8290
 8494SOL     OW26922   3.710   3.938   7.933  0.1820 -0.0051 -0.0573
 8494SOL    HW126923   3.679   4.008   7.990  1.3438  0.4547  0.0287
 8494SOL    HW226924   3.640   3.872   7.936  1.0057 -0.8937  3.4031
 8495SOL     OW26925   4.370   1.673   7.631  0.4477 -0.4314 -0.2698
 8495SOL    HW126926   4.394   1.751   7.681  0.4129 -0.7656  0.2747
 8495SOL    HW226927   4.288   1.698   7.587  1.1950  0.3328 -1.2725
 8496SOL     OW26928   4.442   0.057   7.737 -0.0081 -0.2471 -0.2670
 8496SOL    HW126929   4.372   0.070   7.801  0.2377 -0.7890  0.1207
 8496SOL    HW226930   4.514   0.020   7.787  0.5608  0.3006 -0.6679
 8497SOL     OW26931   7.906   7.527   3.953 -0.1747 -0.2426  0.2745
 8497SOL    HW126932   7.985   7.576   3.977 -0.8631  0.2279  1.6897
 8497SOL    HW226933   7.840   7.594   3.936 -0.4405 -0.6449 -0.3429
 8498SOL     OW26934   5.388   6.949  10.692 -0.7158 -0.8185 -0.1047
 8498SOL    HW126935   5.415   6.996  10.771 -0.6921 -1.3875  0.2292
 8498SOL    HW226936   5.303   6.911  10.714 -2.0069  1.1906 -1.2354
 8499SOL     OW26937   7.510   0.655   5.000 -0.2617 -0.9638  0.4649
 8499SOL    HW126938   7.475   0.732   5.045 -2.3047 -1.3337 -0.3990
 8499SOL    HW226939   7.476   0.662   4.911  1.7476 -1.4921 -0.4024
 8500SOL     OW26940   2.711   6.241   2.274  0.0719 -0.1340 -0.3173
 8500SOL    HW126941   2.623   6.272   2.295 -0.4906 -1.0695 -1.1863
 8500SOL    HW226942   2.712   6.150   2.304  0.9747  0.0642  0.2798
 8501SOL     OW26943   6.904   4.017   7.222  0.4276 -0.0108 -0.3462
 8501SOL    HW126944   6.871   4.091   7.274  0.7560  0.2044 -0.4379
 8501SOL    HW226945   6.894   4.046   7.131  2.0831  0.6253 -0.3750
 8502SOL     OW26946   4.374   7.605   8.254 -0.7467 -0.2713 -0.3193
 8502SOL    HW126947   4.317   7.605   8.330 -1.4028 -2.1203 -0.7514
 8502SOL    HW226948   4.315   7.613   8.179 -0.2691 -0.2260 -0.7018
 8503SOL     OW26949   7.529   2.702   5.516 -0.2680 -0.5216  0.7093
 8503SOL    HW126950   7.458   2.741   5.567  0.6107  1.5226  0.4786
 8503SOL    HW226951   7.516   2.608   5.525 -1.4576 -0.2298  2.8430
 8504SOL     OW26952   5.667   1.794   5.503 -0.3503  0.0524  0.4172
 8504SOL    HW126953   5.596   1.731   5.498 -0.9183  0.6656  0.6186
 8504SOL    HW226954   5.746   1.741   5.514 -0.8537 -0.5981  0.9491
 8505SOL     OW26955   1.413   1.865   8.419  0.1136  0.0893  0.3537
 8505SOL    HW126956   1.477   1.820   8.363  2.2742  0.9239  2.0149
 8505SOL    HW226957   1.465   1.902   8.490 -2.0085  2.3614  0.8637
 8506SOL     OW26958   5.151   3.890   5.576 -0.2145  0.4582 -0.0614
 8506SOL    HW126959   5.103   3.820   5.533 -1.1675 -0.0558  1.7337
 8506SOL    HW226960   5.209   3.924   5.508 -1.7025 -0.2036 -1.7694
 8507SOL     OW26961   1.519   5.630  10.429 -0.6365  0.1414  0.2435
 8507SOL    HW126962   1.476   5.582  10.500  1.7483  1.4410  2.7181
 8507SOL    HW226963   1.555   5.561  10.372  1.4406 -1.1548  2.8909
 8508SOL     OW26964   4.937   0.309   5.237  0.2252 -0.6481 -0.3694
 8508SOL    HW126965   4.846   0.281   5.231 -0.5185  0.9160  2.0710
 8508SOL    HW226966   4.956   0.346   5.150 -1.5516 -0.7424 -0.8426
 8509SOL     OW26967   6.410   1.532   6.673 -0.0184 -0.5698 -0.1938
 8509SOL    HW126968   6.474   1.558   6.607 -0.5694  0.4758 -0.3381
 8509SOL    HW226969   6.345   1.481   6.624 -0.2088 -0.1470 -0.3881
 8510SOL     OW26970   3.259   1.038   7.380 -0.4870 -0.3321  0.5663
 8510SOL    HW126971   3.299   0.990   7.308  0.3704  1.8810 -0.5402
 8510SOL    HW226972   3.333   1.069   7.432 -1.0367 -0.7301  1.6070
 8511SOL     OW26973   6.186   5.620   6.076 -0.4008 -0.1227  0.1402
 8511SOL    HW126974   6.115   5.680   6.097  1.3772  2.7333 -1.3543
 8511SOL    HW226975   6.202   5.633   5.983  0.9486 -1.9939  0.0469
 8512SOL     OW26976   6.111   5.813   8.379  0.1641 -0.3542  0.2601
 8512SOL    HW126977   6.177   5.882   8.389 -0.4298  0.1494  0.8150
 8512SOL    HW226978   6.105   5.800   8.284 -0.2747  0.9364  0.0882
 8513SOL     OW26979   7.291   0.980   1.824 -0.1919 -0.3324 -0.3471
 8513SOL    HW126980   7.350   1.043   1.864 -0.3561 -1.3203  1.5346
 8513SOL    HW226981   7.336   0.953   1.744  0.9377  0.4541 -0.0004
 8514SOL     OW26982   7.602   1.792  12.272 -0.4131 -0.2690 -0.0718
 8514SOL    HW126983   7.658   1.782  12.195 -1.6452  0.0916 -1.0357
 8514SOL    HW226984   7.604   1.706  12.314  1.3894 -0.0844  0.3114
 8515SOL     OW26985   5.746   4.216   8.491  0.2184 -0.5339 -0.4351
 8515SOL    HW126986   5.787   4.294   8.455  0.1872 -0.0896  0.4642
 8515SOL    HW226987   5.787   4.144   8.444 -1.0236  0.0652 -2.5484
 8516SOL     OW26988   7.913   4.964   6.502  0.0027 -0.2995  0.3351
 8516SOL    HW126989   7.918   5.060   6.493 -2.1508 -0.3246 -2.1976
 8516SOL    HW226990   7.982   4.931   6.445  1.3384 -0.3221  1.8901
 8517SOL     OW26991   3.100   5.122   8.541  0.1568  0.1213  0.1470
 8517SOL    HW126992   3.125   5.084   8.457 -0.8533 -0.6543  0.1867
 8517SOL    HW226993   3.034   5.063   8.577 -0.6528  1.3223  0.7232
 8518SOL     OW26994   1.131   4.078   8.539 -0.9368 -0.0042  0.6931
 8518SOL    HW126995   1.116   3.985   8.559 -0.3942 -0.5566 -1.1997
 8518SOL    HW226996   1.167   4.114   8.620  1.0597 -2.0124  0.8220
 8519SOL     OW26997   7.322   2.653   7.812 -0.4845  0.0116  0.2347
 8519SOL    HW126998   7.354   2.597   7.741  2.3410  2.4365 -0.6351
 8519SOL    HW226999   7.245   2.697   7.775 -0.0758 -0.0553 -0.7335
 8520SOL     OW27000   0.262   2.710  11.645 -0.1398 -0.1636  1.2537
 8520SOL    HW127001   0.263   2.617  11.665 -1.3861 -0.1478  1.4713
 8520SOL    HW227002   0.230   2.752  11.725 -0.9496  0.3060  0.7000
 8521SOL     OW27003   2.491   0.029   1.817  0.5997  0.2484 -0.1006
 8521SOL    HW127004   2.568  -0.005   1.863  0.6693  2.3322  1.5064
 8521SOL    HW227005   2.517   0.117   1.790 -1.0396  0.8088  0.0605
 8522SOL     OW27006   3.316   5.375  10.777  0.2770 -0.6134 -0.1609
 8522SOL    HW127007   3.380   5.314  10.742  0.2099 -0.5054 -0.4769
 8522SOL    HW227008   3.247   5.378  10.711  0.6322  0.3806 -0.5151
 8523SOL     OW27009   0.121   5.650   0.612  0.0330 -0.0789  0.3578
 8523SOL    HW127010   0.210   5.665   0.581 -0.1912  0.8982  0.1235
 8523SOL    HW227011   0.077   5.608   0.538 -0.2453  1.3719 -0.3378
 8524SOL     OW27012   1.979   5.281   5.694 -0.1024  0.5847  0.2324
 8524SOL    HW127013   1.917   5.342   5.733 -0.9930 -0.3907  0.4023
 8524SOL    HW227014   1.986   5.209   5.757  1.5180  0.8407  0.3987
 8525SOL     OW27015   5.670   2.615   1.139  0.2813 -0.3813  0.2147
 8525SOL    HW127016   5.673   2.658   1.054  0.7608 -0.2156  0.3120
 8525SOL    HW227017   5.664   2.521   1.118 -2.7233 -0.2134 -0.0062
 8526SOL     OW27018   6.704   6.838  11.382  0.6092  0.4976 -0.6286
 8526SOL    HW127019   6.688   6.919  11.334 -2.9934  0.1760 -0.2396
 8526SOL    HW227020   6.677   6.769  11.322 -2.3697  0.0088  1.0848
 8527SOL     OW27021   7.768   1.782  10.111  0.3216 -0.0480 -0.1125
 8527SOL    HW127022   7.789   1.787  10.017  1.2559 -1.2495  0.0042
 8527SOL    HW227023   7.834   1.838  10.153  0.6282 -0.4220 -0.0892
 8528SOL     OW27024   3.487   0.827  10.597 -0.3865 -0.6743 -0.2972
 8528SOL    HW127025   3.511   0.820  10.689 -1.8902  0.1194  0.1644
 8528SOL    HW227026   3.530   0.751  10.556  0.4348 -0.9401  0.9959
 8529SOL     OW27027   6.973   6.893  11.176  0.3053  0.1701  0.4480
 8529SOL    HW127028   6.993   6.862  11.264  1.3101  0.6422  0.3935
 8529SOL    HW227029   7.048   6.867  11.123  1.0830  2.4146  0.3460
 8530SOL     OW27030   4.751   0.731  10.118  0.7290 -0.0464 -0.2224
 8530SOL    HW127031   4.754   0.752  10.024  1.2235 -0.0940 -0.2156
 8530SOL    HW227032   4.677   0.783  10.151  1.4571  1.1022 -0.3589
 8531SOL     OW27033   3.443   6.718   9.458 -0.4657 -0.0259  0.2284
 8531SOL    HW127034   3.423   6.749   9.370 -1.0324 -1.1293 -0.0483
 8531SOL    HW227035   3.359   6.691   9.494 -0.0758 -0.7783  0.6189
 8532SOL     OW27036   1.406   2.605   2.015 -0.1047 -0.1905  0.1618
 8532SOL    HW127037   1.401   2.701   2.015 -0.1784 -0.1320 -2.0434
 8532SOL    HW227038   1.334   2.578   1.957 -0.8661 -1.6765  1.7100
 8533SOL     OW27039   0.361   7.440   6.728 -0.4412 -0.0110  0.3317
 8533SOL    HW127040   0.339   7.502   6.797  1.2680  0.1579  0.7711
 8533SOL    HW227041   0.277   7.417   6.688 -1.3744  0.5074  1.9204
 8534SOL     OW27042   0.175   7.221   2.567  0.1336 -0.1094 -0.4321
 8534SOL    HW127043   0.178   7.164   2.643  0.7614  1.3388  0.6904
 8534SOL    HW227044   0.236   7.182   2.504  0.4251 -0.7370  0.2335
 8535SOL     OW27045   7.936   1.289   7.781 -0.5215 -0.6700  0.0539
 8535SOL    HW127046   7.916   1.346   7.855 -0.5544 -0.6722  0.0468
 8535SOL    HW227047   7.851   1.267   7.744 -0.4654 -0.0158 -0.4752
 8536SOL     OW27048   3.323   5.447   5.780  0.2177 -0.3298  0.2467
 8536SOL    HW127049   3.239   5.478   5.745  1.3137  2.1915 -0.3812
 8536SOL    HW227050   3.338   5.500   5.858  1.7315  0.1274 -0.3056
 8537SOL     OW27051   1.619   1.206   3.189 -0.0112  0.0953 -0.2081
 8537SOL    HW127052   1.600   1.130   3.242 -1.1038  0.8411  0.5131
 8537SOL    HW227053   1.560   1.198   3.114  1.5986 -1.0093 -1.4286
 8538SOL     OW27054   4.491   1.439   6.415 -0.2970 -0.0538  0.1484
 8538SOL    HW127055   4.580   1.447   6.379 -0.2242  0.0313  0.3503
 8538SOL    HW227056   4.473   1.525   6.453 -0.6266  0.0605 -0.2602
 8539SOL     OW27057   1.101   5.105   6.196  0.2173 -0.2549 -0.2414
 8539SOL    HW127058   1.092   5.074   6.286 -1.2215 -1.5804 -0.7889
 8539SOL    HW227059   1.096   5.201   6.202  1.5365 -0.2473  1.1945
 8540SOL     OW27060   4.304   0.166   9.674 -0.9653 -0.4618  0.6153
 8540SOL    HW127061   4.293   0.091   9.615  0.9774  0.0727 -0.5158
 8540SOL    HW227062   4.256   0.237   9.631 -0.9914 -0.5055  0.5712
 8541SOL     OW27063   2.753   5.824   6.807  0.1106 -0.2798  0.5543
 8541SOL    HW127064   2.810   5.773   6.749 -2.0327 -1.8200 -0.3451
 8541SOL    HW227065   2.697   5.875   6.749 -0.4881 -0.0216  1.3285
 8542SOL     OW27066   5.559   7.770   1.483 -0.2283 -0.2203 -0.3743
 8542SOL    HW127067   5.653   7.782   1.475 -0.5374  2.0022 -1.4774
 8542SOL    HW227068   5.527   7.854   1.517 -2.0284 -0.1278 -2.1385
 8543SOL     OW27069   3.129   1.336  10.592 -0.1342  0.0050  0.2363
 8543SOL    HW127070   3.212   1.374  10.620 -0.4246  0.3254  0.6728
 8543SOL    HW227071   3.135   1.244  10.616  1.1822 -0.6276 -2.1692
 8544SOL     OW27072   6.709   5.679   0.338 -1.2014 -0.1113  0.5391
 8544SOL    HW127073   6.780   5.702   0.398  0.2107 -0.8819 -0.7956
 8544SOL    HW227074   6.678   5.594   0.369  2.1496 -2.5060 -1.9239
 8545SOL     OW27075   2.733   4.297  12.382 -0.0133  0.1577  0.1406
 8545SOL    HW127076   2.817   4.298  12.427 -0.1328  1.9716  0.4201
 8545SOL    HW227077   2.684   4.227  12.424  1.3098 -0.8757  0.0317
 8546SOL     OW27078   6.501   5.121   0.975 -0.0227  0.0972  0.0440
 8546SOL    HW127079   6.529   5.110   0.884  0.1184  0.8020 -0.0055
 8546SOL    HW227080   6.547   5.052   1.023 -0.8588 -0.8964 -0.5625
 8547SOL     OW27081   3.390   5.370  12.419 -0.3316 -0.2047 -0.0240
 8547SOL    HW127082   3.428   5.303  12.475  0.3977 -0.3334 -0.6535
 8547SOL    HW227083   3.329   5.322  12.362  0.7689 -0.4897 -1.0074
 8548SOL     OW27084   3.630   4.129   8.512 -0.1644  0.1756 -0.0500
 8548SOL    HW127085   3.705   4.110   8.568 -0.4469  1.2440  0.7251
 8548SOL    HW227086   3.564   4.165   8.571 -1.0894 -0.2159 -0.8082
 8549SOL     OW27087   6.082   0.598   8.941  0.3438 -0.5444 -0.3264
 8549SOL    HW127088   6.055   0.506   8.950  0.7148 -0.5337  1.1517
 8549SOL    HW227089   6.004   0.643   8.910 -0.4153 -1.0541  0.7825
 8550SOL     OW27090   0.721   0.410  10.596  0.1992  0.1466 -0.3075
 8550SOL    HW127091   0.680   0.340  10.546 -1.5381  1.0185 -0.1961
 8550SOL    HW227092   0.812   0.382  10.608 -0.7366 -2.7790  0.9896
 8551SOL     OW27093   0.198   6.203   2.702 -0.0056 -0.6729 -0.0264
 8551SOL    HW127094   0.174   6.145   2.630  0.5131 -0.7679 -0.1247
 8551SOL    HW227095   0.288   6.228   2.684 -0.3013  0.3816 -0.1282
 8552SOL     OW27096   5.127   5.650   4.151 -0.3288 -0.5209 -0.6261
 8552SOL    HW127097   5.124   5.743   4.174 -1.3178 -0.7533  0.2802
 8552SOL    HW227098   5.219   5.633   4.131  0.2532  0.1919  1.2430
 8553SOL     OW27099   4.518   7.172   5.196 -0.1034  0.0894  0.1023
 8553SOL    HW127100   4.452   7.124   5.145  0.1283 -0.0938 -0.0287
 8553SOL    HW227101   4.471   7.202   5.274 -0.0572 -1.0429  0.5822
 8554SOL     OW27102   7.441   5.943  11.657  0.0449  0.7503  0.2101
 8554SOL    HW127103   7.396   5.859  11.645  0.1883  0.6356  0.4629
 8554SOL    HW227104   7.419   5.994  11.579  1.9490 -0.4101 -1.1582
 8555SOL     OW27105   7.350   6.093   0.089 -0.3823 -0.1650  0.2341
 8555SOL    HW127106   7.262   6.081   0.125 -0.4147 -0.9208 -0.0757
 8555SOL    HW227107   7.348   6.046   0.006 -0.4875  1.9965 -1.0575
 8556SOL     OW27108   4.580   0.614   2.024  0.0922  0.1195  0.0515
 8556SOL    HW127109   4.647   0.584   1.962 -0.9345 -0.6694 -0.7170
 8556SOL    HW227110   4.504   0.633   1.970 -0.7118 -0.2255  1.0289
 8557SOL     OW27111   1.276   3.948   0.045 -0.1649  0.9240 -0.4825
 8557SOL    HW127112   1.237   3.867   0.076  0.2633  1.4190  1.4926
 8557SOL    HW227113   1.264   3.946  -0.050 -1.6756 -0.6334 -0.3076
 8558SOL     OW27114   7.591   2.227   8.315 -0.1045 -0.1330 -0.0632
 8558SOL    HW127115   7.565   2.193   8.229 -1.6891  0.9844 -0.0550
 8558SOL    HW227116   7.521   2.202   8.374  0.6602 -0.3211  0.7908
 8559SOL     OW27117   1.041   0.532   6.326 -0.1362 -1.2941  0.4412
 8559SOL    HW127118   0.972   0.487   6.276 -0.5879 -1.1309  0.9057
 8559SOL    HW227119   1.074   0.598   6.266 -1.3116 -0.4820  0.6374
 8560SOL     OW27120   2.649   7.061   0.775  0.6313 -0.7012 -0.6738
 8560SOL    HW127121   2.636   7.030   0.685  0.0426  0.8148 -1.1315
 8560SOL    HW227122   2.705   7.138   0.767  2.7986 -2.0233  0.5308
 8561SOL     OW27123   7.750   0.595   6.254 -0.0734 -0.1270  0.1169
 8561SOL    HW127124   7.785   0.683   6.239 -2.3242  0.5514 -1.6861
 8561SOL    HW227125   7.817   0.537   6.216  0.8803  0.8475  0.2465
 8562SOL     OW27126   0.092   6.485  11.784  0.1086 -0.7195 -0.0765
 8562SOL    HW127127   0.054   6.496  11.697  0.0428 -0.7576 -0.0533
 8562SOL    HW227128   0.096   6.391  11.797 -0.7434 -0.7162  0.3254
 8563SOL     OW27129   4.532   3.690   2.613  0.0048 -0.4850  0.1220
 8563SOL    HW127130   4.545   3.784   2.624 -0.4278 -0.3746 -0.2561
 8563SOL    HW227131   4.594   3.650   2.674  0.8641  0.0307 -0.3860
 8564SOL     OW27132   7.709   5.305   6.159 -0.0460  0.5758  0.1063
 8564SOL    HW127133   7.648   5.337   6.225  0.7857  1.4444  0.4903
 8564SOL    HW227134   7.773   5.376   6.150  0.9854 -0.3617 -0.1594
 8565SOL     OW27135   7.672   1.719   2.471  0.2048 -0.1269  0.4039
 8565SOL    HW127136   7.615   1.752   2.402 -0.3344 -0.5695  0.6350
 8565SOL    HW227137   7.686   1.793   2.529 -0.7611 -0.2160  0.7594
 8566SOL     OW27138   1.618   1.762   7.625 -0.2508  0.5887  0.3633
 8566SOL    HW127139   1.548   1.701   7.602 -0.3283  0.7291  0.2220
 8566SOL    HW227140   1.598   1.841   7.575 -1.2993  1.4545  2.0464
 8567SOL     OW27141   5.801   3.535   8.302  0.5969  0.1871  0.5282
 8567SOL    HW127142   5.828   3.444   8.293  1.0305  0.3215  0.4202
 8567SOL    HW227143   5.765   3.558   8.216  0.8884  0.2409  0.4171
 8568SOL     OW27144   1.392   5.866   1.395 -0.4229  0.5303  0.0590
 8568SOL    HW127145   1.486   5.880   1.405 -0.4231  0.6261 -0.0729
 8568SOL    HW227146   1.374   5.890   1.304 -0.3118 -0.9033 -0.3705
 8569SOL     OW27147   1.376   7.686   9.509  0.0949 -0.0803  0.3958
 8569SOL    HW127148   1.413   7.702   9.596 -0.6123  2.5020  0.2890
 8569SOL    HW227149   1.436   7.730   9.449  0.2721 -1.3740 -0.4116
 8570SOL     OW27150   3.601   5.265   9.238 -0.4158 -0.0963  0.2891
 8570SOL    HW127151   3.638   5.206   9.303 -1.8851 -0.6143  0.7081
 8570SOL    HW227152   3.641   5.350   9.255  0.3948 -0.5810  0.8319
 8571SOL     OW27153   7.684   0.386  10.230 -0.1629 -0.4751 -0.3567
 8571SOL    HW127154   7.595   0.361  10.253 -0.1285  0.0985  0.4216
 8571SOL    HW227155   7.716   0.436  10.305  0.9137 -0.8982 -0.5073
 8572SOL     OW27156   7.656   1.318   2.809  0.3934 -0.0327 -0.1525
 8572SOL    HW127157   7.644   1.399   2.760  0.8531 -0.3222 -0.7593
 8572SOL    HW227158   7.572   1.273   2.801 -0.8419  1.5293  2.4372
 8573SOL     OW27159   3.233   5.138   1.121 -0.0142 -0.2184 -0.9541
 8573SOL    HW127160   3.268   5.049   1.114 -0.9073 -0.6063 -0.6982
 8573SOL    HW227161   3.281   5.177   1.194 -1.3506 -1.3615  0.6114
 8574SOL     OW27162   6.953   2.426   4.613 -0.1844 -0.2411 -0.4927
 8574SOL    HW127163   7.020   2.420   4.544  0.2397 -1.2053 -0.0278
 8574SOL    HW227164   6.987   2.491   4.674  0.5841 -1.0560 -0.0222
 8575SOL     OW27165   7.417   0.579   7.165  0.0684  0.1731  0.1748
 8575SOL    HW127166   7.470   0.617   7.235  0.5111 -0.6072  0.2719
 8575SOL    HW227167   7.438   0.633   7.088  0.8310  0.0176  0.2655
 8576SOL     OW27168   0.558   3.867   9.230 -0.3424 -0.0916  0.0963
 8576SOL    HW127169   0.544   3.817   9.310  0.5199  0.7283  0.7837
 8576SOL    HW227170   0.653   3.876   9.223 -0.4517  1.1097 -0.1965
 8577SOL     OW27171   6.503   3.714   5.479  0.4253 -0.1986 -0.2780
 8577SOL    HW127172   6.451   3.792   5.460 -0.5874 -0.7431  0.1259
 8577SOL    HW227173   6.588   3.747   5.507 -0.1375  0.7819  0.3365
 8578SOL     OW27174   0.637   0.842   9.894  0.1588  0.0232  0.5645
 8578SOL    HW127175   0.620   0.807   9.982  0.2422  0.0811  0.6035
 8578SOL    HW227176   0.659   0.934   9.908 -0.0408  0.0861  0.4616
 8579SOL     OW27177   7.192   6.012   6.014  0.1396  0.5954 -0.1512
 8579SOL    HW127178   7.107   6.033   6.055  0.7525  2.2248  0.3828
 8579SOL    HW227179   7.174   5.935   5.960 -1.5435  0.5354  0.4233
 8580SOL     OW27180   3.602   0.541  12.101  0.3007  0.0905  0.3070
 8580SOL    HW127181   3.609   0.464  12.157 -0.7336  0.1483  0.5320
 8580SOL    HW227182   3.567   0.507  12.018  1.7005  0.0230 -0.2964
 8581SOL     OW27183   1.953   5.420   4.612 -0.5255  0.2312 -0.0378
 8581SOL    HW127184   1.938   5.348   4.551  0.6577  1.7911 -2.2990
 8581SOL    HW227185   2.018   5.386   4.673  1.4402 -0.1147 -2.1803
 8582SOL     OW27186   1.629   0.940   5.700 -0.5152  0.1063  0.1826
 8582SOL    HW127187   1.605   0.875   5.766  1.1056  0.9143  1.6410
 8582SOL    HW227188   1.605   1.024   5.739 -1.2538  0.5016 -1.0667
 8583SOL     OW27189   2.167   7.523   7.968 -0.9664  0.5080 -0.4771
 8583SOL    HW127190   2.198   7.610   7.944 -1.5609  0.4772 -1.3872
 8583SOL    HW227191   2.094   7.505   7.908 -0.2175 -1.0218 -0.9822
 8584SOL     OW27192   5.511   6.515  12.216 -0.4709  0.3389  0.1243
 8584SOL    HW127193   5.430   6.497  12.264 -0.0834  0.0549  0.6840
 8584SOL    HW227194   5.576   6.530  12.284  0.1059 -0.1562 -0.3076
 8585SOL     OW27195   7.373   0.029  10.691 -0.2160  0.3850  0.4369
 8585SOL    HW127196   7.429  -0.029  10.639  1.0053  2.2318 -0.3866
 8585SOL    HW227197   7.298  -0.026  10.715  0.4911 -1.2918 -0.9867
 8586SOL     OW27198   2.252   6.786   2.919  0.3773 -0.0749 -0.1398
 8586SOL    HW127199   2.243   6.809   2.827  0.7234  0.5555 -0.0197
 8586SOL    HW227200   2.284   6.695   2.918 -0.5482 -0.4122 -0.6170
 8587SOL     OW27201   7.880   1.269   4.299 -0.1110 -0.4421  0.2922
 8587SOL    HW127202   7.934   1.231   4.369  2.8240  2.6285 -0.0674
 8587SOL    HW227203   7.821   1.329   4.345  0.0979 -0.2756  0.3461
 8588SOL     OW27204   6.483   4.737   2.656 -0.2813 -0.5520 -0.5160
 8588SOL    HW127205   6.567   4.711   2.618 -0.4054 -0.3543 -0.9244
 8588SOL    HW227206   6.434   4.655   2.664  0.2652 -0.7970  0.5244
 8589SOL     OW27207   5.192   0.156   5.802 -0.1167 -0.1190  0.1952
 8589SOL    HW127208   5.153   0.086   5.751  0.5630  0.0601 -0.6026
 8589SOL    HW227209   5.201   0.120   5.890 -2.0417 -0.1564  0.4216
 8590SOL     OW27210   0.293   3.531   3.652 -0.0132 -0.5026 -0.3918
 8590SOL    HW127211   0.260   3.613   3.613  0.7279 -0.0153 -0.0163
 8590SOL    HW227212   0.371   3.557   3.700 -0.9365 -1.0534  1.5201
 8591SOL     OW27213   2.193   6.171   1.418 -0.5923 -0.2603  0.2566
 8591SOL    HW127214   2.134   6.232   1.374 -1.0197 -0.3341  0.7167
 8591SOL    HW227215   2.214   6.105   1.352  0.3170  0.6781 -0.4177
 8592SOL     OW27216   7.073   7.224  10.672 -0.3722 -0.0322 -0.3917
 8592SOL    HW127217   7.142   7.158  10.685  0.8344  0.6641 -2.7274
 8592SOL    HW227218   6.997   7.189  10.718  0.8402 -2.0295  0.1967
 8593SOL     OW27219   7.199   2.809  12.430  0.0624  0.1686 -0.0484
 8593SOL    HW127220   7.251   2.745  12.479  0.5119 -0.4341 -1.2527
 8593SOL    HW227221   7.217   2.893  12.472  1.2702 -0.1720  0.1539
 8594SOL     OW27222   5.117   6.858   6.039 -0.0954  0.3636 -0.2361
 8594SOL    HW127223   5.092   6.942   6.000  1.2213  0.1163 -1.7174
 8594SOL    HW227224   5.088   6.792   5.976  1.7911 -0.0683 -0.7190
 8595SOL     OW27225   0.108   1.780   2.182  0.2293 -0.0759  0.1086
 8595SOL    HW127226   0.057   1.731   2.246 -0.3432  0.6018  0.1798
 8595SOL    HW227227   0.118   1.867   2.221  0.7871  0.0224 -0.2464
 8596SOL     OW27228   3.837   7.492  12.420 -0.2955  0.1213  0.5044
 8596SOL    HW127229   3.745   7.470  12.404 -0.0354 -1.5708  1.1491
 8596SOL    HW227230   3.834   7.551  12.495 -0.8779  0.5876  0.1323
 8597SOL     OW27231   5.254   3.681   1.199 -0.2459  0.0488 -0.2881
 8597SOL    HW127232   5.264   3.605   1.142 -1.6713 -0.1789 -0.2737
 8597SOL    HW227233   5.209   3.648   1.277 -0.6441  0.8476 -0.1618
 8598SOL     OW27234   1.073   6.168   7.840 -0.0096 -0.3594  0.3392
 8598SOL    HW127235   0.987   6.203   7.863  0.0505  1.4182 -1.8059
 8598SOL    HW227236   1.056   6.078   7.813 -1.0310 -0.3425  0.8905
 8599SOL     OW27237   6.454   3.576   1.463  0.0527 -0.0994  0.1684
 8599SOL    HW127238   6.493   3.514   1.525 -0.1102 -2.4213 -1.9344
 8599SOL    HW227239   6.523   3.591   1.398 -0.9761 -0.6307 -1.0794
 8600SOL     OW27240   0.632   7.030   1.237 -0.0129 -0.0522 -0.2531
 8600SOL    HW127241   0.563   7.058   1.177  0.4922  0.7521 -0.4832
 8600SOL    HW227242   0.710   7.021   1.182  0.3692  0.3414  0.2098
 8601SOL     OW27243   2.759   7.187   2.498  1.0409  0.2015  0.4094
 8601SOL    HW127244   2.756   7.227   2.412 -0.3794  0.0295  0.3593
 8601SOL    HW227245   2.693   7.119   2.496  0.5503  0.5865  1.8276
 8602SOL     OW27246   6.017   2.875   2.736 -0.3589 -0.4281 -0.1299
 8602SOL    HW127247   6.067   2.794   2.747 -1.9826 -1.9523 -2.7252
 8602SOL    HW227248   5.931   2.854   2.771  0.0688  1.3531  2.1302
 8603SOL     OW27249   5.498   0.918   7.398 -0.2418 -0.1735 -0.3433
 8603SOL    HW127250   5.520   0.833   7.360 -0.2722 -0.1292 -0.4610
 8603SOL    HW227251   5.557   0.980   7.354  0.6960 -0.3086  0.6677
 8604SOL     OW27252   7.611   4.971   5.647 -0.6205 -0.0978 -0.2669
 8604SOL    HW127253   7.570   4.984   5.562  1.2036 -0.9917 -1.3483
 8604SOL    HW227254   7.698   4.935   5.627  0.5195  1.2198  1.8865
 8605SOL     OW27255   2.477   3.498  11.762 -0.1280  0.1102 -0.0183
 8605SOL    HW127256   2.457   3.417  11.809  0.0599 -0.5070 -0.9717
 8605SOL    HW227257   2.571   3.509  11.770 -0.4127  1.7484  2.4399
 8606SOL     OW27258   1.228   0.398   4.965 -0.3240 -0.5050 -0.0707
 8606SOL    HW127259   1.150   0.350   4.934 -1.2147  1.6363 -1.3754
 8606SOL    HW227260   1.212   0.489   4.939  1.1413  0.6141  2.5483
 8607SOL     OW27261   3.458   4.381   9.019  0.5655 -0.3008 -0.1217
 8607SOL    HW127262   3.491   4.344   9.101  0.8935  0.3956  0.0713
 8607SOL    HW227263   3.392   4.319   8.989  0.3517 -0.4959  0.7372
 8608SOL     OW27264   2.843   5.232   5.154  0.2111  0.0481 -0.3239
 8608SOL    HW127265   2.808   5.171   5.218  0.8901  0.5205  0.5247
 8608SOL    HW227266   2.787   5.221   5.077 -0.8673 -0.2567  0.4728
 8609SOL     OW27267   1.519   7.900   2.723 -0.4421  0.0364 -0.1512
 8609SOL    HW127268   1.606   7.862   2.734 -0.8946 -1.0194 -0.1242
 8609SOL    HW227269   1.496   7.881   2.632 -0.4989  0.6399 -0.2680
 8610SOL     OW27270   1.330   7.045  11.961  0.0346  0.3353 -0.2205
 8610SOL    HW127271   1.420   7.036  11.931  0.0641  1.8884 -0.6897
 8610SOL    HW227272   1.292   6.958  11.950  1.5513 -0.4256  0.2839
 8611SOL     OW27273   2.419   3.469   9.895 -0.3151  0.2197  0.0886
 8611SOL    HW127274   2.466   3.539   9.942 -0.8496  2.0062 -1.8696
 8611SOL    HW227275   2.456   3.471   9.807 -1.7544 -0.6115 -0.5633
 8612SOL     OW27276   2.882   0.632   9.521  0.2848  0.1130  0.4283
 8612SOL    HW127277   2.959   0.655   9.574  0.5348  0.0375  0.1024
 8612SOL    HW227278   2.918   0.615   9.434 -0.3637  2.6555 -0.4374
 8613SOL     OW27279   3.375   2.815   7.389 -0.1273  0.1352  0.3322
 8613SOL    HW127280   3.451   2.842   7.440 -0.4340  0.3892  0.6543
 8613SOL    HW227281   3.310   2.789   7.454 -0.1424 -0.5650  0.0513
 8614SOL     OW27282   2.896   2.217   2.917 -0.1904  0.2685  0.0429
 8614SOL    HW127283   2.970   2.179   2.964  0.4224 -0.1543 -1.2135
 8614SOL    HW227284   2.864   2.146   2.861 -1.2292  0.6026  0.1902
 8615SOL     OW27285   0.766   5.169   0.046  0.0662 -0.2306  0.1156
 8615SOL    HW127286   0.856   5.177   0.077  0.4597 -0.2305 -0.9704
 8615SOL    HW227287   0.748   5.075   0.048 -0.8597 -0.0608  2.8355
 8616SOL     OW27288   0.229   6.979   3.945  0.5956 -0.2762  0.1630
 8616SOL    HW127289   0.263   6.897   3.982 -2.6844 -2.6018 -1.3917
 8616SOL    HW227290   0.244   6.971   3.851  0.4907  1.0788  0.0173
 8617SOL     OW27291   0.080   6.119   0.669 -0.0758  0.0996 -0.5714
 8617SOL    HW127292   0.095   6.081   0.755 -0.0250  0.9363 -0.2065
 8617SOL    HW227293   0.120   6.057   0.608  0.0779 -0.3855  0.0139
 8618SOL     OW27294   7.020   1.501   1.801  0.3103 -0.2949 -0.5995
 8618SOL    HW127295   7.048   1.409   1.797 -1.1953 -0.7335 -1.9674
 8618SOL    HW227296   7.100   1.549   1.820  1.1043 -1.8966  0.3643
 8619SOL     OW27297   7.546   0.555   6.066 -0.0134  0.6481 -0.0580
 8619SOL    HW127298   7.628   0.560   6.115  0.4013  0.2916 -0.6977
 8619SOL    HW227299   7.564   0.602   5.984 -0.4033  0.4519 -0.2583
 8620SOL     OW27300   3.016   6.045  11.724 -0.4199  0.0340 -0.0730
 8620SOL    HW127301   3.031   5.951  11.734 -0.0476  0.2710  2.2150
 8620SOL    HW227302   3.015   6.059  11.629  0.6937 -2.0813 -0.4734
 8621SOL     OW27303   0.937   2.033  12.120  0.4267 -0.3776 -0.1477
 8621SOL    HW127304   0.962   1.947  12.154 -0.6073 -0.1536  1.2719
 8621SOL    HW227305   0.995   2.094  12.166 -0.0775 -0.1815  0.2407
 8622SOL     OW27306   0.925   7.058  11.824 -0.4115 -0.0079 -0.2364
 8622SOL    HW127307   0.910   7.090  11.735 -1.6745 -0.2664 -0.1253
 8622SOL    HW227308   0.958   7.135  11.871 -1.0759  0.4989 -0.5847
 8623SOL     OW27309   4.484   0.614   3.085  0.1076  0.2713 -0.1427
 8623SOL    HW127310   4.520   0.609   3.174 -0.5276  0.4108  0.1285
 8623SOL    HW227311   4.413   0.550   3.084  0.2556  0.1081 -0.6230
 8624SOL     OW27312   3.356   6.798  10.733 -0.1744 -0.1038 -1.0870
 8624SOL    HW127313   3.375   6.887  10.763 -0.4135  0.1070 -1.5449
 8624SOL    HW227314   3.442   6.761  10.712  0.0726 -0.5233  0.5590
 8625SOL     OW27315   6.440   2.429   0.131  0.0773  0.2172  0.3489
 8625SOL    HW127316   6.516   2.484   0.114 -0.2517  0.1582 -1.5723
 8625SOL    HW227317   6.474   2.357   0.184  1.0381  0.9626  0.7758
 8626SOL     OW27318   7.298   4.691   4.472  0.3258  0.0356 -0.1702
 8626SOL    HW127319   7.348   4.738   4.539 -0.9234 -2.0523  2.4158
 8626SOL    HW227320   7.212   4.734   4.473  0.3583  0.1099 -0.5679
 8627SOL     OW27321   4.277   1.837   6.320  0.4555 -0.6685 -0.7628
 8627SOL    HW127322   4.203   1.775   6.318  0.4019 -0.6413  0.0935
 8627SOL    HW227323   4.352   1.783   6.344 -0.0713 -0.0050  2.9937
 8628SOL     OW27324   7.529   5.801  10.581 -0.0342  0.1412  0.2921
 8628SOL    HW127325   7.585   5.776  10.508  1.2399 -0.3599  1.3961
 8628SOL    HW227326   7.528   5.723  10.638 -0.4236  0.7491  1.1391
 8629SOL     OW27327   3.740   3.109  10.870  0.3994 -0.3980 -0.3139
 8629SOL    HW127328   3.696   3.114  10.955 -1.1364  1.7616 -1.1443
 8629SOL    HW227329   3.671   3.126  10.807  1.7823 -0.5527 -1.9253
 8630SOL     OW27330   0.609   6.950   9.827  0.4005 -0.0243 -0.0024
 8630SOL    HW127331   0.545   6.906   9.883  0.2209 -0.2057 -0.3450
 8630SOL    HW227332   0.671   6.990   9.888  1.0731 -1.4871  0.3095
 8631SOL     OW27333   5.269   0.959  12.354  0.0232  0.1011 -0.1857
 8631SOL    HW127334   5.245   0.981  12.444 -1.0078 -0.6395 -0.2553
 8631SOL    HW227335   5.226   1.025  12.300  0.5643  0.4903 -0.1432
 8632SOL     OW27336   1.275   7.863   6.139  0.0089 -0.1655 -0.1718
 8632SOL    HW127337   1.269   7.775   6.101 -2.4101 -0.6425  1.1390
 8632SOL    HW227338   1.316   7.850   6.224 -0.4302 -0.0559  0.0604
 8633SOL     OW27339   6.272   4.018   3.050 -0.0248  0.0487  0.5706
 8633SOL    HW127340   6.183   4.038   3.080 -0.0927 -1.2999  1.3176
 8633SOL    HW227341   6.310   3.964   3.119  0.6403 -1.1534 -0.6719
 8634SOL     OW27342   2.887   0.355   4.352  0.3871  0.6360  0.4066
 8634SOL    HW127343   2.983   0.362   4.354  0.3756  0.7220  0.8669
 8634SOL    HW227344   2.859   0.398   4.433 -0.0125  0.1224  0.5441
 8635SOL     OW27345   6.062   5.095   3.389  0.6328 -0.0802 -0.2970
 8635SOL    HW127346   6.033   5.086   3.480 -0.8430  0.5625 -0.6608
 8635SOL    HW227347   6.031   5.015   3.346  0.7362 -0.0819 -0.3678
 8636SOL     OW27348   6.636   4.856   5.533  0.9514  0.1748 -0.6824
 8636SOL    HW127349   6.548   4.888   5.514  1.2359  0.8279 -0.9206
 8636SOL    HW227350   6.655   4.795   5.462  0.2445 -0.8838 -0.0020
 8637SOL     OW27351   7.613   0.060   4.790 -0.2295  0.1037 -0.0459
 8637SOL    HW127352   7.634   0.049   4.697  0.3094 -1.8999  0.2651
 8637SOL    HW227353   7.666   0.134   4.819  0.4699  0.0195 -1.0746
 8638SOL     OW27354   1.771   6.521   3.328  0.2123 -0.1559 -0.1637
 8638SOL    HW127355   1.759   6.427   3.340 -2.0778 -0.0735 -1.2712
 8638SOL    HW227356   1.682   6.556   3.323  0.9065  2.4858  2.8137
 8639SOL     OW27357   1.778   0.174   1.477  0.8082  0.2146 -0.4111
 8639SOL    HW127358   1.846   0.235   1.448 -0.9463  2.4364 -0.1532
 8639SOL    HW227359   1.696   0.215   1.451 -0.4874 -3.0394 -1.9699
 8640SOL     OW27360   6.492   6.366  11.286 -0.1748 -0.0286 -0.1363
 8640SOL    HW127361   6.507   6.275  11.310 -1.6953  0.0973  1.4742
 8640SOL    HW227362   6.413   6.365  11.232 -1.0469  0.4351  1.0756
 8641SOL     OW27363   6.186   7.305   8.591  0.1132 -0.1056  0.6794
 8641SOL    HW127364   6.188   7.377   8.528 -0.3088  0.9461  1.8451
 8641SOL    HW227365   6.268   7.258   8.577  0.3414  0.5259 -0.1624
 8642SOL     OW27366   4.937   1.913   0.317 -0.2030 -0.1751 -0.3480
 8642SOL    HW127367   5.028   1.926   0.342 -0.1769  0.2420 -0.6337
 8642SOL    HW227368   4.940   1.898   0.222 -0.4948  0.7128 -0.5118
 8643SOL     OW27369   0.951   7.936   7.966  0.1288 -0.0578 -0.1296
 8643SOL    HW127370   1.000   8.014   7.941 -0.2734 -0.1189 -1.1450
 8643SOL    HW227371   0.859   7.960   7.956 -0.1167  0.2046  2.2212
 8644SOL     OW27372   3.138   6.822   9.133  1.1310 -0.3553 -0.5410
 8644SOL    HW127373   3.217   6.779   9.166 -0.0827 -2.1004  0.2056
 8644SOL    HW227374   3.116   6.886   9.200  2.5674  1.0734 -1.3443
 8645SOL     OW27375   7.604   0.906   1.006  0.1328  0.8397 -0.4690
 8645SOL    HW127376   7.644   0.954   0.934  0.1986 -0.8652 -1.6363
 8645SOL    HW227377   7.529   0.862   0.966 -0.6595  0.9468  0.8308
 8646SOL     OW27378   5.569   2.591   4.094 -0.1313 -0.2161 -0.0051
 8646SOL    HW127379   5.552   2.627   4.181 -1.1469  0.1873 -0.3586
 8646SOL    HW227380   5.600   2.502   4.110  1.1505  0.3497  0.8249
 8647SOL     OW27381   2.468   2.585  11.608  0.0815  0.0752 -0.2124
 8647SOL    HW127382   2.439   2.661  11.658 -0.3626 -0.6892  0.7400
 8647SOL    HW227383   2.404   2.578  11.537  0.3678  0.8243 -0.5513
 8648SOL     OW27384   6.327   7.038   2.905 -0.0426  0.0703 -0.4734
 8648SOL    HW127385   6.272   6.992   2.841  1.2696 -0.4208 -1.2961
 8648SOL    HW227386   6.338   7.125   2.868  1.1450 -0.3711 -1.2369
 8649SOL     OW27387   7.303   1.988  11.908 -0.8644 -0.2427  0.0042
 8649SOL    HW127388   7.305   1.950  11.997  0.9918 -2.3904 -0.8326
 8649SOL    HW227389   7.328   2.079  11.921 -1.3853 -0.2991  1.7622
 8650SOL     OW27390   0.706   4.230   2.771 -0.1424  0.9161  0.2864
 8650SOL    HW127391   0.662   4.234   2.686 -0.9850  2.8719  0.7468
 8650SOL    HW227392   0.635   4.229   2.835  0.4774 -1.0029  1.0034
 8651SOL     OW27393   6.395   3.265   8.255  0.4860 -0.3132 -0.6765
 8651SOL    HW127394   6.427   3.330   8.192  1.5601  2.1596  2.1243
 8651SOL    HW227395   6.446   3.186   8.237  1.2118  0.5194 -2.4476
 8652SOL     OW27396   2.605   4.036  12.432  0.2219 -0.0331 -0.5102
 8652SOL    HW127397   2.687   4.016  12.477  0.5157  0.5947 -0.7521
 8652SOL    HW227398   2.617   4.000  12.344  0.4789  0.5623 -0.7288
 8653SOL     OW27399   4.456   0.325   2.899 -0.2397  0.1358  0.3361
 8653SOL    HW127400   4.464   0.234   2.926 -1.0538  0.3206  1.2742
 8653SOL    HW227401   4.371   0.353   2.935 -0.6398  0.8702 -1.0951
 8654SOL     OW27402   1.329   7.513   5.459 -0.3802 -0.1541 -0.4956
 8654SOL    HW127403   1.328   7.609   5.461 -0.9832 -0.1535  1.8675
 8654SOL    HW227404   1.418   7.489   5.484  0.0709 -0.2576 -2.0790
 8655SOL     OW27405   1.952   3.399   0.477  0.0907  0.0787 -0.1628
 8655SOL    HW127406   2.037   3.401   0.433 -0.1614  0.6646 -0.6396
 8655SOL    HW227407   1.897   3.456   0.424  0.0343  1.5868  1.4472
 8656SOL     OW27408   4.087   5.742   5.003  0.0459  0.1659 -0.4686
 8656SOL    HW127409   4.175   5.706   5.018  0.1003 -0.6143 -2.4117
 8656SOL    HW227410   4.030   5.689   5.059  0.5951 -0.4979 -0.5220
 8657SOL     OW27411   6.199   4.340   5.375 -0.7350  0.4548 -0.5797
 8657SOL    HW127412   6.194   4.343   5.279  0.8097  1.3866 -0.6708
 8657SOL    HW227413   6.293   4.336   5.393 -1.0320 -1.4818  0.8881
 8658SOL     OW27414   7.646   0.108   9.165 -0.1864  0.6315 -0.0778
 8658SOL    HW127415   7.672   0.173   9.231 -0.9699 -0.2368  1.1236
 8658SOL    HW227416   7.700   0.031   9.185  0.3060  0.7049 -1.1096
 8659SOL     OW27417   2.624   1.398  10.742  0.1087 -0.6225 -0.2910
 8659SOL    HW127418   2.608   1.397  10.836  1.2645  0.5361 -0.0553
 8659SOL    HW227419   2.699   1.340  10.729 -0.1856 -0.9531 -0.5307
 8660SOL     OW27420   0.075   1.307   1.331 -0.4946 -0.4418 -0.4323
 8660SOL    HW127421   0.024   1.348   1.262 -1.4247  1.5245  1.3151
 8660SOL    HW227422   0.158   1.354   1.331 -0.9395  0.3686  0.5140
 8661SOL     OW27423   4.506   6.347   6.661 -0.4193 -0.6355 -0.4764
 8661SOL    HW127424   4.500   6.351   6.565 -0.2087  1.1127 -0.4426
 8661SOL    HW227425   4.591   6.385   6.681 -0.8153 -0.2032  0.4469
 8662SOL     OW27426   0.557   7.311   5.793 -0.0815  0.4594 -0.0040
 8662SOL    HW127427   0.503   7.319   5.715  0.4061 -0.3220 -0.4328
 8662SOL    HW227428   0.576   7.217   5.800  1.1859  0.7074  0.1492
 8663SOL     OW27429   0.203   6.241   4.794 -0.1922  0.6499  0.3026
 8663SOL    HW127430   0.263   6.256   4.721 -0.3213 -0.1945  0.0110
 8663SOL    HW227431   0.120   6.219   4.753  0.4773 -3.0940  0.5486
 8664SOL     OW27432   6.000   5.871   0.974  0.0103  0.2545 -0.9893
 8664SOL    HW127433   6.020   5.959   0.943  1.1809 -0.4892 -2.4771
 8664SOL    HW227434   6.019   5.814   0.899  1.3991 -1.4818  0.5577
 8665SOL     OW27435   0.876   5.886   9.025  0.1970  0.0168  0.4234
 8665SOL    HW127436   0.863   5.981   9.028 -2.0122 -0.2591  1.2820
 8665SOL    HW227437   0.814   5.855   8.959  1.0597 -0.8284 -0.0105
 8666SOL     OW27438   0.251   5.204   4.654 -0.4174  0.0313  0.0085
 8666SOL    HW127439   0.342   5.181   4.634 -0.3016  0.9904 -0.6377
 8666SOL    HW227440   0.241   5.182   4.747 -0.4424 -2.8636 -0.5844
 8667SOL     OW27441   6.081   4.077   0.813 -0.0622 -0.8169  0.5982
 8667SOL    HW127442   6.035   4.112   0.889  2.1890 -2.1028  2.6901
 8667SOL    HW227443   6.171   4.108   0.822  0.4698 -1.7288 -1.0795
 8668SOL     OW27444   0.776   7.642   7.140  0.0153 -0.1073 -0.2380
 8668SOL    HW127445   0.837   7.619   7.210 -0.7158 -0.5024  0.2736
 8668SOL    HW227446   0.801   7.587   7.066  0.9494  0.4899 -0.3821
 8669SOL     OW27447   2.129   4.070   6.051 -0.1143 -0.0350  0.0821
 8669SOL    HW127448   2.151   4.163   6.038 -0.7921 -0.2042 -3.1709
 8669SOL    HW227449   2.212   4.024   6.040 -0.0981  0.0657 -0.2224
 8670SOL     OW27450   0.093   7.155   1.817  0.3332  0.0620  0.2948
 8670SOL    HW127451   0.188   7.151   1.828  0.4967  1.4166 -0.4402
 8670SOL    HW227452   0.065   7.223   1.878  0.1031  1.0379 -0.8564
 8671SOL     OW27453   1.321   4.609   1.676 -0.2171  0.0965  0.3539
 8671SOL    HW127454   1.307   4.527   1.630  0.3919 -0.3357  0.9127
 8671SOL    HW227455   1.285   4.595   1.764  0.1424  0.3219  0.5432
 8672SOL     OW27456   4.702   3.214   5.041 -0.1598  0.4851  0.3297
 8672SOL    HW127457   4.665   3.127   5.054 -0.6717  0.6863  0.2603
 8672SOL    HW227458   4.761   3.227   5.115  0.6098 -0.2744 -0.1341
 8673SOL     OW27459   6.656   2.298   4.934 -0.0941 -0.2159 -0.6326
 8673SOL    HW127460   6.578   2.262   4.892 -0.5619 -0.4529  0.4012
 8673SOL    HW227461   6.622   2.347   5.009  0.7498 -0.2267 -0.2350
 8674SOL     OW27462   6.316   7.633   9.198 -0.2107 -0.3799  0.0143
 8674SOL    HW127463   6.278   7.605   9.281 -1.0641 -1.0588 -0.5914
 8674SOL    HW227464   6.409   7.613   9.207 -0.2559 -0.2516  0.8836
 8675SOL     OW27465   0.682   5.251   1.614  0.3175 -0.1157  0.5598
 8675SOL    HW127466   0.617   5.301   1.663 -2.7386 -0.1440 -3.0368
 8675SOL    HW227467   0.764   5.298   1.628 -1.1585  2.1401  2.3663
 8676SOL     OW27468   5.377   1.206   8.589 -0.2644  0.0563 -0.6044
 8676SOL    HW127469   5.305   1.225   8.529 -0.3007  2.2619  0.0327
 8676SOL    HW227470   5.350   1.245   8.672  0.9769 -0.4865  0.0864
 8677SOL     OW27471   2.570   1.511   1.139  0.1437 -0.1390  0.0701
 8677SOL    HW127472   2.652   1.478   1.178 -0.0766 -2.1881 -1.0357
 8677SOL    HW227473   2.568   1.471   1.052 -0.2723  2.8291 -1.3873
 8678SOL     OW27474   7.055   1.817   8.973  0.2807 -0.2345  0.2078
 8678SOL    HW127475   6.966   1.850   8.965  0.6475  1.8770  3.2095
 8678SOL    HW227476   7.061   1.785   9.064  1.8622 -2.8299 -0.6909
 8679SOL     OW27477   5.486   0.560  11.742 -0.2498 -0.4423 -0.1844
 8679SOL    HW127478   5.573   0.597  11.726 -0.8470  1.4609  0.6665
 8679SOL    HW227479   5.456   0.531  11.656  0.7849 -0.1282 -0.6663
 8680SOL     OW27480   3.838   4.655   0.100  0.3078 -0.2498 -0.4092
 8680SOL    HW127481   3.767   4.702   0.143 -0.1197 -0.7949 -0.5043
 8680SOL    HW227482   3.911   4.659   0.162  0.9472  2.1882 -1.2033
 8681SOL     OW27483   6.798   0.445   0.321 -0.1729 -0.0112  0.6296
 8681SOL    HW127484   6.893   0.455   0.330 -0.1943  0.4525  0.3660
 8681SOL    HW227485   6.768   0.528   0.283 -0.5804 -0.4442 -0.0128
 8682SOL     OW27486   7.079   0.349   6.001 -0.1375 -0.0492  0.4261
 8682SOL    HW127487   7.105   0.279   6.061  0.1961  0.1960  0.5697
 8682SOL    HW227488   7.023   0.405   6.055  0.7797  0.5860  0.7323
 8683SOL     OW27489   4.361   6.110   3.493  0.7395  0.6530  0.1734
 8683SOL    HW127490   4.296   6.071   3.551 -0.6039 -0.0980 -1.7422
 8683SOL    HW227491   4.443   6.108   3.543 -0.0779 -1.1381  1.5405
 8684SOL     OW27492   6.263   6.440  11.622  0.1884 -0.4628  0.5201
 8684SOL    HW127493   6.243   6.518  11.674 -1.5721 -1.1841  0.9923
 8684SOL    HW227494   6.359   6.437  11.619  0.2899  1.8431  0.2671
 8685SOL     OW27495   2.153   7.792   1.923  0.4439  0.3767 -0.3072
 8685SOL    HW127496   2.147   7.887   1.924  0.8510  0.4550 -1.8986
 8685SOL    HW227497   2.156   7.769   1.830  0.4356 -1.1883  0.0431
 8686SOL     OW27498   1.290   3.473   3.579  0.4646  0.0726 -0.1600
 8686SOL    HW127499   1.285   3.446   3.487 -0.0506 -0.2004 -0.0563
 8686SOL    HW227500   1.370   3.431   3.612  0.3637 -0.2655 -0.3427
 8687SOL     OW27501   2.587   2.029   7.953  0.0920  0.1357  0.5321
 8687SOL    HW127502   2.648   2.046   8.025 -0.3702  0.5280  0.8396
 8687SOL    HW227503   2.540   2.112   7.941  0.1910  0.0860 -0.2492
 8688SOL     OW27504   0.719   5.741   8.822 -0.2945  0.5240  0.2078
 8688SOL    HW127505   0.767   5.672   8.868 -1.3887 -0.9970 -0.8247
 8688SOL    HW227506   0.736   5.723   8.729  0.0610  2.1705 -0.0768
 8689SOL     OW27507   4.702   7.560   1.751 -0.4553  0.4664 -0.1836
 8689SOL    HW127508   4.751   7.577   1.671 -2.8719  0.3037 -1.7672
 8689SOL    HW227509   4.718   7.637   1.806 -0.3490  1.5183 -1.6413
 8690SOL     OW27510   1.558   3.671   4.384  0.3380 -0.0020  0.0464
 8690SOL    HW127511   1.622   3.667   4.455 -0.3879 -0.6466  0.6744
 8690SOL    HW227512   1.593   3.615   4.316 -0.0106 -1.1445  0.7796
 8691SOL     OW27513   5.240   4.564   1.677 -0.4514 -0.1133  0.1423
 8691SOL    HW127514   5.162   4.607   1.712  0.0454 -0.3942  1.6386
 8691SOL    HW227515   5.235   4.475   1.709 -0.1102 -0.4701 -0.7582
 8692SOL     OW27516   6.242   7.629   9.474  0.6364 -0.7245 -0.1783
 8692SOL    HW127517   6.203   7.591   9.553  1.3048 -2.1811 -0.5136
 8692SOL    HW227518   6.278   7.713   9.504  1.3605 -1.4887  1.2254
 8693SOL     OW27519   4.127   1.571   2.213  0.5322 -0.2116  0.4283
 8693SOL    HW127520   4.066   1.597   2.282 -1.8610 -0.6414 -1.3893
 8693SOL    HW227521   4.192   1.642   2.210 -0.5021  0.8288  1.7204
 8694SOL     OW27522   1.340   0.420  10.018 -0.4591  0.3988  0.0067
 8694SOL    HW127523   1.271   0.441   9.955 -0.3076  1.2794  0.1242
 8694SOL    HW227524   1.297   0.363  10.082 -0.7131 -0.1978 -0.6756
 8695SOL     OW27525   0.852   5.094   3.292  0.0303  0.0806 -0.0872
 8695SOL    HW127526   0.840   5.182   3.258  2.8036  1.6848  2.5274
 8695SOL    HW227527   0.776   5.079   3.348 -0.8565  0.4412 -1.1662
 8696SOL     OW27528   7.354   2.079   7.130 -0.3086  0.2274 -0.2248
 8696SOL    HW127529   7.434   2.094   7.179  1.5249  1.3368 -3.2996
 8696SOL    HW227530   7.321   2.167   7.109 -0.7716 -0.1912 -1.3373
 8697SOL     OW27531   2.713   0.354   2.109 -0.6087  0.4033  0.0109
 8697SOL    HW127532   2.688   0.301   2.185 -0.4683 -1.4432 -1.1678
 8697SOL    HW227533   2.793   0.398   2.137 -0.7453  0.0433  1.0475
 8698SOL     OW27534   5.592   7.382  11.905  0.3635  0.0263  0.4539
 8698SOL    HW127535   5.674   7.335  11.922 -0.1943 -2.6415 -2.9636
 8698SOL    HW227536   5.617   7.452  11.844  0.4660  1.1260  1.7228
 8699SOL     OW27537   0.030   6.944  11.146 -0.0938  0.3416 -0.6269
 8699SOL    HW127538  -0.044   6.886  11.129  0.2407  0.0526 -1.1093
 8699SOL    HW227539  -0.003   7.032  11.126  0.1634  0.0675 -2.4464
 8700SOL     OW27540   0.381   3.795   1.758 -0.3602  0.6269  0.0999
 8700SOL    HW127541   0.297   3.751   1.769 -0.3303  0.3884 -0.5828
 8700SOL    HW227542   0.362   3.888   1.771 -0.5424  0.4825  0.9085
 8701SOL     OW27543   2.953   5.330  11.266  0.4102  0.3109 -0.2590
 8701SOL    HW127544   3.034   5.378  11.280 -0.6185  2.3660 -0.8462
 8701SOL    HW227545   2.918   5.366  11.184 -1.1840 -0.3389  0.0940
 8702SOL     OW27546   1.503   6.245   5.543 -0.3548  0.6074  0.0246
 8702SOL    HW127547   1.541   6.330   5.521 -0.4664  0.8065  0.5836
 8702SOL    HW227548   1.425   6.266   5.596 -1.0255  0.1931 -0.7719
 8703SOL     OW27549   3.281   2.365   7.084 -0.4218  0.1246  0.2415
 8703SOL    HW127550   3.256   2.418   7.009 -0.1286 -0.2223 -0.1035
 8703SOL    HW227551   3.250   2.415   7.160 -0.6762  0.4982 -0.1040
 8704SOL     OW27552   5.009   6.762   5.454 -0.0339  0.1179 -0.1503
 8704SOL    HW127553   4.937   6.711   5.492  0.1480  0.0554  0.1144
 8704SOL    HW227554   4.967   6.825   5.397 -0.3030  0.1051  0.0332
 8705SOL     OW27555   3.794   7.359   8.308 -0.0376 -0.3573  0.1265
 8705SOL    HW127556   3.716   7.371   8.361  0.1379  1.1585  0.0741
 8705SOL    HW227557   3.853   7.307   8.364 -0.7069 -0.7041  0.5225
 8706SOL     OW27558   3.824   6.093   5.736 -0.2499 -1.1515  0.4259
 8706SOL    HW127559   3.797   6.064   5.824 -0.6070 -0.9956  0.3719
 8706SOL    HW227560   3.849   6.184   5.747 -1.1875 -0.8561  0.1976
 8707SOL     OW27561   1.618   4.294  10.475 -0.1266  0.2113 -0.0159
 8707SOL    HW127562   1.713   4.305  10.472 -0.3457  2.4760 -1.9989
 8707SOL    HW227563   1.596   4.262  10.387 -1.2782  0.7556  0.0654
 8708SOL     OW27564   4.777   4.336   6.479 -0.7071 -0.3021  0.5338
 8708SOL    HW127565   4.727   4.403   6.432  0.4733 -0.9320 -1.7832
 8708SOL    HW227566   4.712   4.279   6.519 -1.7429  1.2069  1.0771
 8709SOL     OW27567   7.757   0.980  12.296  0.4132 -0.0127  0.1791
 8709SOL    HW127568   7.726   0.907  12.243 -1.6076  1.1982 -0.4485
 8709SOL    HW227569   7.741   0.952  12.387 -3.7469  0.8355 -0.0772
 8710SOL     OW27570   1.725   6.847   0.850  0.7916 -0.5368 -0.1653
 8710SOL    HW127571   1.682   6.762   0.854 -2.3298  0.9538  0.5404
 8710SOL    HW227572   1.712   6.885   0.937  2.6661  0.4634 -0.2715
 8711SOL     OW27573   2.611   3.036  11.489  0.2367 -0.1386 -0.5500
 8711SOL    HW127574   2.657   2.977  11.549 -1.4170  0.1556  1.1005
 8711SOL    HW227575   2.578   2.979  11.420 -0.1924 -0.9809  0.3176
 8712SOL     OW27576   6.449   4.403  11.287 -0.7748 -0.2979  0.0985
 8712SOL    HW127577   6.484   4.384  11.200  1.2096 -0.9702  0.9819
 8712SOL    HW227578   6.514   4.460  11.328 -0.6365 -1.6086  1.8291
 8713SOL     OW27579   3.461   5.336   0.992  0.2269 -0.0811  0.3519
 8713SOL    HW127580   3.370   5.347   0.964  0.1587 -1.2511  0.0538
 8713SOL    HW227581   3.512   5.343   0.911  0.6417  2.5599  0.7434
 8714SOL     OW27582   4.274   6.741   2.842 -0.1604 -0.3384  0.2902
 8714SOL    HW127583   4.318   6.825   2.853 -0.1323 -0.3116 -0.0063
 8714SOL    HW227584   4.340   6.684   2.803 -0.6383 -0.0374 -1.0150
 8715SOL     OW27585   7.833   2.214   7.398  0.2624 -0.0557 -0.0631
 8715SOL    HW127586   7.890   2.273   7.347 -0.9810  0.7354 -0.5982
 8715SOL    HW227587   7.819   2.260   7.481 -1.2332  0.7721 -0.7275
 8716SOL     OW27588   2.862   3.147  11.841 -0.7369 -0.1138 -0.9641
 8716SOL    HW127589   2.935   3.085  11.834  0.2891  0.7164  1.2876
 8716SOL    HW227590   2.903   3.233  11.824 -1.0709  0.3956  0.6625
 8717SOL     OW27591   4.075   6.472   9.147 -0.4297  0.6210  0.4333
 8717SOL    HW127592   4.125   6.545   9.111  1.8647 -0.9637  0.2225
 8717SOL    HW227593   4.106   6.462   9.237 -1.0439  0.1885  0.6056
 8718SOL     OW27594   5.546   6.772   7.631  0.5120 -0.2211 -0.3309
 8718SOL    HW127595   5.632   6.785   7.592 -0.1515  0.4597 -1.6670
 8718SOL    HW227596   5.540   6.677   7.643  1.8749 -0.1759  0.8791
 8719SOL     OW27597   6.401   7.149   0.857 -0.1257 -0.6696 -0.3137
 8719SOL    HW127598   6.476   7.133   0.800 -0.5893  1.1951 -1.5763
 8719SOL    HW227599   6.439   7.164   0.944  0.8626 -0.9186 -0.6909
 8720SOL     OW27600   2.447   4.863   4.405 -0.0687  0.4729  0.3954
 8720SOL    HW127601   2.522   4.804   4.409 -0.4070 -0.0430 -0.5192
 8720SOL    HW227602   2.373   4.806   4.385 -0.2897  1.2692 -1.2314
 8721SOL     OW27603   1.330   3.072   3.631  0.8155  0.4694  0.2883
 8721SOL    HW127604   1.279   3.140   3.675  0.7652 -0.1511  1.2379
 8721SOL    HW227605   1.310   3.082   3.538  0.0065  1.0853  0.5189
 8722SOL     OW27606   0.265   6.682   8.253 -0.4055 -0.0092  0.4161
 8722SOL    HW127607   0.199   6.618   8.224 -2.1790  0.6740  2.6755
 8722SOL    HW227608   0.244   6.698   8.345  1.2701  2.3191  0.4716
 8723SOL     OW27609   6.782   5.902   5.462  0.3829  0.5699  0.3711
 8723SOL    HW127610   6.724   5.832   5.433  1.5959 -0.1732 -0.3342
 8723SOL    HW227611   6.758   5.977   5.407 -0.8200  0.6994  1.0324
 8724SOL     OW27612   2.893   0.272   3.646 -0.6004  0.6580 -0.6534
 8724SOL    HW127613   2.884   0.326   3.568 -0.4656  3.0798  0.9111
 8724SOL    HW227614   2.987   0.260   3.656 -0.5676  1.2141 -0.3006
 8725SOL     OW27615   1.259   3.544  11.189  0.4820 -0.1140  0.0864
 8725SOL    HW127616   1.305   3.624  11.167  0.3845 -0.0471  0.1233
 8725SOL    HW227617   1.232   3.508  11.104 -1.2264  0.9350  0.1390
 8726SOL     OW27618   4.758   2.086   3.578  0.0403  0.4735  0.3322
 8726SOL    HW127619   4.713   2.162   3.541 -0.0248 -0.2969 -1.2698
 8726SOL    HW227620   4.714   2.011   3.538  1.8408 -0.3308 -0.2213
 8727SOL     OW27621   5.198   4.871   4.175 -0.0629 -0.2216  0.0575
 8727SOL    HW127622   5.244   4.788   4.159 -1.1208 -1.1716  1.6006
 8727SOL    HW227623   5.133   4.876   4.106  1.3813  0.4448 -1.3257
 8728SOL     OW27624   4.005   5.948  10.510  0.7846 -0.3320 -0.6042
 8728SOL    HW127625   3.962   5.883  10.454 -0.4253 -1.4586  1.5069
 8728SOL    HW227626   4.086   5.969  10.464  1.0329 -3.0201 -1.5950
 8729SOL     OW27627   7.319   3.777   1.310  0.2063 -0.3442 -0.1953
 8729SOL    HW127628   7.378   3.839   1.354 -0.0194  1.7760 -2.6106
 8729SOL    HW227629   7.376   3.724   1.255  0.1019  0.1040 -0.7456
 8730SOL     OW27630   4.298   3.607   4.250  0.0019  0.8036 -0.3005
 8730SOL    HW127631   4.207   3.580   4.262  0.2383 -0.0511 -0.3761
 8730SOL    HW227632   4.348   3.550   4.308  0.3725  2.2250  0.8295
 8731SOL     OW27633   1.342   5.682   8.802  0.2365  0.3182  0.4760
 8731SOL    HW127634   1.371   5.690   8.893 -0.3645  0.2270  0.6852
 8731SOL    HW227635   1.253   5.717   8.802  0.5183  1.0675 -0.2542
 8732SOL     OW27636   1.207   3.141   3.017  0.0425 -0.3314  0.3593
 8732SOL    HW127637   1.117   3.156   3.047 -0.7497 -1.3707 -1.3888
 8732SOL    HW227638   1.233   3.224   2.976 -0.6215 -0.4452 -0.3072
 8733SOL     OW27639   6.287   3.853   3.639  0.1629 -0.3298 -0.0089
 8733SOL    HW127640   6.292   3.949   3.632  2.1248 -0.3141  0.9255
 8733SOL    HW227641   6.300   3.835   3.732  1.5111 -1.5581 -0.4038
 8734SOL     OW27642   5.501   5.735   3.403 -0.3598  0.1029  0.5454
 8734SOL    HW127643   5.461   5.708   3.486  0.1769  0.8112  1.0565
 8734SOL    HW227644   5.560   5.663   3.381  0.8818  0.6918  1.7651
 8735SOL     OW27645   3.209   2.987  10.382 -0.5221 -0.2597  0.1061
 8735SOL    HW127646   3.282   2.932  10.354 -0.3335 -0.5602  1.1632
 8735SOL    HW227647   3.243   3.076  10.375  0.0668 -0.4111  0.9015
 8736SOL     OW27648   5.807   1.770   7.704 -0.2583 -0.1341  0.9149
 8736SOL    HW127649   5.757   1.850   7.689  0.8855  0.7891  1.8151
 8736SOL    HW227650   5.895   1.790   7.673  0.6290 -0.2140  3.1562
 8737SOL     OW27651   6.466   7.837   4.751  0.0910  0.0039  0.2001
 8737SOL    HW127652   6.560   7.827   4.767  0.3457  1.6821  0.0078
 8737SOL    HW227653   6.429   7.858   4.836  0.0163  0.0788  0.1498
 8738SOL     OW27654   6.340   3.366   4.826  0.1859 -0.4092 -0.1319
 8738SOL    HW127655   6.388   3.293   4.866  1.1294  0.2615 -0.0248
 8738SOL    HW227656   6.284   3.399   4.897  0.4395 -0.4419  0.0845
 8739SOL     OW27657   6.748   4.235   2.619 -0.5128  0.5766  0.4972
 8739SOL    HW127658   6.699   4.209   2.542 -0.9396 -0.7320  1.1796
 8739SOL    HW227659   6.830   4.186   2.613 -0.2951  0.9252  0.5786
 8740SOL     OW27660   7.798   7.832   3.294 -0.5233  0.8546  0.1195
 8740SOL    HW127661   7.859   7.800   3.228  1.5577  3.9554  0.3033
 8740SOL    HW227662   7.804   7.769   3.366  1.5311  0.3770 -0.3957
 8741SOL     OW27663   4.641   4.804   5.021 -0.2273 -0.3178  0.3880
 8741SOL    HW127664   4.720   4.808   4.968 -0.5961 -0.7823 -0.2027
 8741SOL    HW227665   4.608   4.715   5.010 -0.1724 -0.5112  1.6044
 8742SOL     OW27666   2.319   7.081   2.929  0.3900  0.1496  0.0663
 8742SOL    HW127667   2.313   6.991   2.898 -5.3503 -0.5047  1.8985
 8742SOL    HW227668   2.322   7.074   3.025  1.3946  1.9447  0.2110
 8743SOL     OW27669   4.262   5.582   4.382  0.5298  0.2239  0.5227
 8743SOL    HW127670   4.276   5.633   4.462  1.1936 -0.9171  1.1623
 8743SOL    HW227671   4.344   5.592   4.333  0.5075  0.0987  0.4589
 8744SOL     OW27672   3.471   4.432   5.494  0.0820  0.0679  0.6531
 8744SOL    HW127673   3.441   4.389   5.414 -1.0678 -0.3976  1.3124
 8744SOL    HW227674   3.545   4.379   5.523  0.5777  0.3010 -0.1438
 8745SOL     OW27675   0.263   5.122  10.724 -0.2634  0.1633 -0.5872
 8745SOL    HW127676   0.242   5.034  10.755  4.8146 -1.1667  0.0653
 8745SOL    HW227677   0.253   5.178  10.801  0.1164 -0.6711  0.0951
 8746SOL     OW27678   1.733   3.606   8.921  0.0261 -0.2246 -0.0395
 8746SOL    HW127679   1.676   3.663   8.973 -0.6077  0.0106 -0.9728
 8746SOL    HW227680   1.774   3.548   8.986  0.3586  0.9990  0.8829
 8747SOL     OW27681   3.856   7.062  10.250 -0.1945  0.0007  0.6387
 8747SOL    HW127682   3.766   7.088  10.230 -0.1247  0.3876  0.8017
 8747SOL    HW227683   3.854   7.036  10.342 -0.1574 -0.0732  0.6187
 8748SOL     OW27684   2.477   0.044  11.781  0.5188  0.1344 -0.3269
 8748SOL    HW127685   2.454   0.137  11.786  0.6144  0.0813  1.7984
 8748SOL    HW227686   2.394   0.000  11.763 -0.1331  0.4069  1.7908
 8749SOL     OW27687   7.539   2.572  10.855 -0.2476  0.3241  0.0433
 8749SOL    HW127688   7.457   2.604  10.893  0.2500  1.7077 -0.0065
 8749SOL    HW227689   7.580   2.649  10.816  2.2692  0.1911  2.1825
 8750SOL     OW27690   3.162   4.818   8.611  0.4473 -0.1276  0.3941
 8750SOL    HW127691   3.172   4.814   8.515 -0.4836 -0.6446  0.3112
 8750SOL    HW227692   3.072   4.846   8.624  0.5965  0.0133  1.1346
 8751SOL     OW27693   6.488   7.946   9.145 -0.3115 -0.2527  0.1689
 8751SOL    HW127694   6.415   7.941   9.207  0.5255 -1.2488  1.0889
 8751SOL    HW227695   6.485   8.036   9.112 -1.8405 -0.2230  0.3175
 8752SOL     OW27696   1.366   7.618   9.953  0.0433  0.0404  0.2750
 8752SOL    HW127697   1.453   7.578   9.949 -0.2020 -0.4033 -0.7670
 8752SOL    HW227698   1.310   7.550   9.992  0.0675  0.1726  0.5460
 8753SOL     OW27699   6.908   3.883   6.328 -0.8824  0.3219  0.2679
 8753SOL    HW127700   6.991   3.836   6.339  0.1733  1.6795 -1.4123
 8753SOL    HW227701   6.913   3.920   6.240 -2.4389  2.0732  0.8617
 8754SOL     OW27702   6.151   4.659  11.533  0.5376 -0.1404  0.1256
 8754SOL    HW127703   6.102   4.608  11.598 -1.3176 -0.5844 -1.5138
 8754SOL    HW227704   6.129   4.750  11.552  1.2959 -0.1405  1.0817
 8755SOL     OW27705   0.681   4.430   1.535  0.0787 -0.4267 -0.5383
 8755SOL    HW127706   0.769   4.429   1.496  0.2875  0.4718 -0.1132
 8755SOL    HW227707   0.687   4.367   1.607 -0.2324 -1.8955 -1.7458
 8756SOL     OW27708   3.507   4.962   6.330  0.4163 -0.4328  0.5042
 8756SOL    HW127709   3.545   4.961   6.242  0.1732  0.6782  0.3667
 8756SOL    HW227710   3.580   4.981   6.388  0.3453  0.2724  0.3809
 8757SOL     OW27711   6.063   6.059   9.158 -0.0221  0.2031  0.0983
 8757SOL    HW127712   6.041   5.969   9.133  0.6519 -0.2311  0.9877
 8757SOL    HW227713   5.995   6.084   9.221  1.0299 -0.5384  1.5891
 8758SOL     OW27714   2.939   1.061   3.648  0.2182  0.0455 -0.1565
 8758SOL    HW127715   2.885   1.132   3.613 -0.0714 -0.1267 -0.0537
 8758SOL    HW227716   2.903   1.043   3.734  0.6160  0.1237  0.0303
 8759SOL     OW27717   1.012   7.678   5.929  0.2366 -0.1684  0.0316
 8759SOL    HW127718   0.941   7.615   5.920 -0.3685  0.6474 -1.2052
 8759SOL    HW227719   0.983   7.739   5.997 -1.0535  1.1116 -1.5663
 8760SOL     OW27720   2.467   2.534   6.782  0.1766  0.2538 -0.0219
 8760SOL    HW127721   2.449   2.518   6.689 -0.2072 -1.8953  0.3579
 8760SOL    HW227722   2.385   2.570   6.816 -0.2164 -0.4124 -0.2301
 8761SOL     OW27723   3.788   5.130   0.604  0.4699 -0.2927 -0.0073
 8761SOL    HW127724   3.846   5.144   0.529  1.4758  0.3285  0.8535
 8761SOL    HW227725   3.779   5.034   0.609  0.1488 -0.3322 -1.0824
 8762SOL     OW27726   3.447   4.678   7.838 -1.1054  0.0691  0.0845
 8762SOL    HW127727   3.498   4.726   7.772 -0.8915  0.6157  0.6365
 8762SOL    HW227728   3.503   4.676   7.915 -0.4949 -2.3734 -0.3542
 8763SOL     OW27729   6.411   7.331   3.715  0.4285 -0.5628  0.3298
 8763SOL    HW127730   6.404   7.305   3.623  2.1925  1.0194 -0.3043
 8763SOL    HW227731   6.438   7.251   3.761 -1.5584 -1.6540 -0.2825
 8764SOL     OW27732   5.816   1.218   5.548  0.7168  0.5236 -0.1531
 8764SOL    HW127733   5.905   1.248   5.566  0.7542  1.3259 -1.5137
 8764SOL    HW227734   5.762   1.266   5.610  1.1265  0.9016 -0.0770
 8765SOL     OW27735   6.724   6.339   3.655  0.2074 -0.0123 -0.3298
 8765SOL    HW127736   6.682   6.406   3.709 -0.1076  2.1878 -3.0188
 8765SOL    HW227737   6.813   6.332   3.690 -0.3780  0.2382  1.2974
 8766SOL     OW27738   2.427   3.751   5.479 -0.0870  0.2014  0.1731
 8766SOL    HW127739   2.442   3.656   5.474  1.1401  0.4457 -1.3849
 8766SOL    HW227740   2.362   3.768   5.411 -1.0995  0.3791  1.1430
 8767SOL     OW27741   1.803   0.562   5.679  0.0186  0.6393 -0.7559
 8767SOL    HW127742   1.827   0.469   5.676 -1.0677  0.3524 -1.0876
 8767SOL    HW227743   1.817   0.594   5.590  1.3698  1.0705 -0.4092
 8768SOL     OW27744   4.116   7.171   3.316 -0.2143 -0.6210 -0.0585
 8768SOL    HW127745   4.065   7.148   3.394 -0.2068 -0.3674  0.0203
 8768SOL    HW227746   4.058   7.148   3.242 -1.6779  2.3923  0.0282
 8769SOL     OW27747   7.255   4.447   9.147  0.2489 -0.2290 -0.1371
 8769SOL    HW127748   7.223   4.522   9.096 -0.4027  0.0395  0.6406
 8769SOL    HW227749   7.177   4.412   9.189  0.7739 -0.4378  0.6848
 8770SOL     OW27750   4.563   1.199   5.194  0.1793 -0.3042 -0.0154
 8770SOL    HW127751   4.568   1.284   5.238 -0.3251 -0.9967  1.4612
 8770SOL    HW227752   4.475   1.196   5.157  0.7679  0.4773 -1.5425
 8771SOL     OW27753   4.523   5.516  11.888  0.1023 -0.0071  0.3560
 8771SOL    HW127754   4.456   5.550  11.829 -0.0382  0.7329  0.9218
 8771SOL    HW227755   4.534   5.424  11.862 -1.1694 -0.1590  0.2848
 8772SOL     OW27756   5.605   6.019   2.780 -0.1219 -0.3721 -0.2358
 8772SOL    HW127757   5.623   5.943   2.725  0.1011  0.2240 -1.0094
 8772SOL    HW227758   5.676   6.080   2.761 -0.4336  0.1322  0.1872
 8773SOL     OW27759   2.402   1.300   8.174 -0.4005  0.1829  0.1785
 8773SOL    HW127760   2.367   1.216   8.146  0.5942  0.2668 -1.4291
 8773SOL    HW227761   2.403   1.295   8.270 -0.7472 -1.4592  0.1188
 8774SOL     OW27762   0.816   6.908  10.747 -0.1362 -0.2935  0.8095
 8774SOL    HW127763   0.862   6.988  10.721 -0.8316 -0.4062 -0.9053
 8774SOL    HW227764   0.886   6.846  10.769  0.4192  0.5367  1.4570
 8775SOL     OW27765   2.244   2.662  10.302 -0.1625  0.1474 -1.0690
 8775SOL    HW127766   2.268   2.711  10.223  1.0423  1.3486 -0.0291
 8775SOL    HW227767   2.318   2.603  10.317  1.0513  1.9442  0.6564
 8776SOL     OW27768   3.793   1.733   5.368 -0.0003  0.3705 -0.3098
 8776SOL    HW127769   3.812   1.640   5.360  0.5492  0.5683 -1.6143
 8776SOL    HW227770   3.765   1.760   5.280 -0.4382  1.3696  0.1175
 8777SOL     OW27771   3.720   6.639   4.537 -0.0263  0.3715 -0.1117
 8777SOL    HW127772   3.678   6.566   4.491  0.3308  0.4386 -0.5539
 8777SOL    HW227773   3.695   6.627   4.628 -0.0034 -0.2899 -0.1835
 8778SOL     OW27774   2.527   7.050   8.370  0.3125 -0.2576  0.1743
 8778SOL    HW127775   2.450   7.103   8.348  1.3949  0.8242 -1.2776
 8778SOL    HW227776   2.560   7.020   8.285  2.2435  0.4364  0.6262
 8779SOL     OW27777   5.084   7.808   7.551 -0.7986  0.2770 -0.1531
 8779SOL    HW127778   5.166   7.856   7.564  0.1314 -1.3511  0.3037
 8779SOL    HW227779   5.108   7.738   7.490 -0.7925 -2.5575  2.8370
 8780SOL     OW27780   5.368   0.210   8.029 -0.5996 -0.0594 -0.0532
 8780SOL    HW127781   5.303   0.278   8.048 -0.0162  0.0691  1.6757
 8780SOL    HW227782   5.317   0.129   8.027 -0.7486 -0.0928  2.3228
 8781SOL     OW27783   5.975   1.848   9.299  0.0787  0.3826  0.5930
 8781SOL    HW127784   6.011   1.910   9.236 -1.0883  0.4576 -0.0128
 8781SOL    HW227785   5.963   1.899   9.379  1.7855  0.2301  0.9951
 8782SOL     OW27786   2.766   7.258   6.150  0.0898  0.4352  0.2334
 8782SOL    HW127787   2.755   7.349   6.124 -1.3201  0.0441 -0.6401
 8782SOL    HW227788   2.681   7.218   6.133  0.8410 -1.1700  0.0923
 8783SOL     OW27789   5.859   4.627   0.806 -0.2538 -0.0031 -1.0649
 8783SOL    HW127790   5.763   4.627   0.803 -0.2743  0.7891 -0.8060
 8783SOL    HW227791   5.885   4.552   0.752 -1.0210 -0.4337 -0.8501
 8784SOL     OW27792   7.246   2.797   8.806  0.2428 -0.2262  0.2596
 8784SOL    HW127793   7.261   2.703   8.793 -0.5037 -0.4561  0.9711
 8784SOL    HW227794   7.289   2.839   8.732 -0.3135 -1.1990 -0.6441
 8785SOL     OW27795   4.383   0.232   3.577 -0.1681  0.1894  0.0006
 8785SOL    HW127796   4.414   0.142   3.583 -1.6699 -0.2667  1.7079
 8785SOL    HW227797   4.423   0.277   3.651  1.7464  1.3888 -1.6447
 8786SOL     OW27798   4.397   3.728  11.635  0.1963 -0.1719 -0.4278
 8786SOL    HW127799   4.337   3.785  11.587  1.0359  0.8274 -0.3269
 8786SOL    HW227800   4.480   3.735  11.588  0.4676 -0.8689 -0.0724
 8787SOL     OW27801   4.793   1.212   9.064  0.3979 -0.1088 -0.0421
 8787SOL    HW127802   4.717   1.252   9.022  1.0469  0.6681 -0.5199
 8787SOL    HW227803   4.788   1.239   9.155 -0.3496 -0.7725  0.1267
 8788SOL     OW27804   0.474   4.813   4.996 -0.0819 -0.2535 -0.2306
 8788SOL    HW127805   0.503   4.754   4.926  2.0866  1.3396 -0.7863
 8788SOL    HW227806   0.544   4.810   5.061 -0.0339  1.4773 -0.1546
 8789SOL     OW27807   6.719   1.071   4.068 -0.1699 -0.3756  0.4256
 8789SOL    HW127808   6.706   0.977   4.082  0.0271 -0.4398  0.1690
 8789SOL    HW227809   6.660   1.092   3.996 -0.8989 -0.1180  1.0821
 8790SOL     OW27810   3.340   3.062  10.076  0.1721  0.1765  0.1159
 8790SOL    HW127811   3.346   3.008   9.998  0.4998  2.8528 -1.8503
 8790SOL    HW227812   3.353   3.001  10.149 -0.0352 -2.4081 -1.8855
 8791SOL     OW27813   0.942   2.527   3.625 -0.0232  0.0591 -0.8768
 8791SOL    HW127814   0.951   2.469   3.549  0.0540  0.4525 -1.1701
 8791SOL    HW227815   0.890   2.476   3.688  0.3170 -0.4493 -1.0045
 8792SOL     OW27816   0.539   5.420   3.260  0.1956  0.6611 -0.5128
 8792SOL    HW127817   0.465   5.368   3.291 -0.2906  1.2370 -0.6870
 8792SOL    HW227818   0.517   5.510   3.283  1.2033  0.7633  0.1290
 8793SOL     OW27819   0.822   7.914  10.979  0.0064 -0.0897 -0.8101
 8793SOL    HW127820   0.819   7.864  11.060  2.0068  0.9222 -0.0413
 8793SOL    HW227821   0.839   7.849  10.911 -0.1398 -0.7637 -0.2151
 8794SOL     OW27822   3.318   6.516   5.714 -0.1805  0.6626  0.3602
 8794SOL    HW127823   3.250   6.576   5.682 -1.0685  0.1135  1.1579
 8794SOL    HW227824   3.365   6.489   5.635 -1.1870  0.6933 -0.2769
 8795SOL     OW27825   0.436   3.598   7.946 -0.2016  0.3789 -0.5489
 8795SOL    HW127826   0.387   3.600   8.027  0.7715  2.0316  0.0371
 8795SOL    HW227827   0.470   3.687   7.935  1.8162 -0.4256 -1.4110
 8796SOL     OW27828   7.824   4.063   2.727 -0.6037  0.2229  0.2078
 8796SOL    HW127829   7.893   4.004   2.757 -1.8122 -1.9177 -0.9842
 8796SOL    HW227830   7.755   4.055   2.793 -1.4888 -1.1308 -0.8321
 8797SOL     OW27831   2.813   3.347  11.089 -0.4340  1.1539 -0.2502
 8797SOL    HW127832   2.728   3.327  11.129 -0.0286  0.5381  0.3316
 8797SOL    HW227833   2.839   3.265  11.046  0.2654  1.0659  0.3224
 8798SOL     OW27834   0.583   7.051   2.940 -0.3049 -0.7550  0.7178
 8798SOL    HW127835   0.531   7.120   2.898  0.7161 -0.2836  0.1826
 8798SOL    HW227836   0.518   6.990   2.975 -1.2134 -0.4193 -0.3111
 8799SOL     OW27837   1.162   6.440   1.668 -0.4047  0.1579 -0.4260
 8799SOL    HW127838   1.071   6.419   1.688  0.0263 -1.6378 -0.1371
 8799SOL    HW227839   1.179   6.396   1.585  0.1210  0.7388 -0.6363
 8800SOL     OW27840   5.091   1.372   6.743  0.2351 -0.6645  0.5330
 8800SOL    HW127841   5.113   1.294   6.692 -1.8279 -0.2245 -1.1741
 8800SOL    HW227842   4.999   1.389   6.722  0.5972  2.1890  0.9004
 8801SOL     OW27843   0.522   1.923   1.557 -0.3810  0.0956 -0.1764
 8801SOL    HW127844   0.450   1.986   1.559 -2.1385 -1.7335 -1.8454
 8801SOL    HW227845   0.500   1.859   1.626  0.8468  0.6773  0.8005
 8802SOL     OW27846   2.956   2.703   1.145 -0.2902 -0.5933  0.1227
 8802SOL    HW127847   2.894   2.716   1.216 -2.1018  1.6218 -1.6979
 8802SOL    HW227848   2.935   2.617   1.109 -1.9286 -0.1408 -0.0674
 8803SOL     OW27849   5.511   3.876   0.930  0.4291 -0.3757 -0.2094
 8803SOL    HW127850   5.537   3.948   0.873 -1.7717  0.4863 -0.1879
 8803SOL    HW227851   5.491   3.917   1.014 -0.4745 -1.0465 -0.0813
 8804SOL     OW27852   7.328   7.323   9.581 -0.1449 -0.0928 -0.1689
 8804SOL    HW127853   7.236   7.312   9.605 -1.0165 -0.9302 -3.3539
 8804SOL    HW227854   7.328   7.397   9.520  1.4016  0.2094  0.1519
 8805SOL     OW27855   5.588   2.746  11.132 -0.0666 -0.0574 -0.1686
 8805SOL    HW127856   5.530   2.822  11.129  0.8518  0.7844  1.6002
 8805SOL    HW227857   5.540   2.682  11.186 -1.1984 -1.1219 -2.3306
 8806SOL     OW27858   2.538   6.444   4.107 -0.4426 -0.3067  0.0159
 8806SOL    HW127859   2.633   6.429   4.103 -0.3654  0.1197  0.1984
 8806SOL    HW227860   2.517   6.441   4.201 -0.4365  0.6327  0.0509
 8807SOL     OW27861   0.582   0.760   1.153  0.6467 -0.3907  0.2220
 8807SOL    HW127862   0.603   0.759   1.246  4.5690  0.3986 -0.4698
 8807SOL    HW227863   0.535   0.842   1.139  0.4947 -0.2656  1.4173
 8808SOL     OW27864   5.028   4.150   1.557  0.3125  0.3276 -0.2714
 8808SOL    HW127865   5.022   4.088   1.629  0.9484 -2.3265 -2.3471
 8808SOL    HW227866   5.106   4.202   1.576  0.7076 -0.5937  0.7200
 8809SOL     OW27867   3.556   6.234  11.922  0.3877  0.3459  0.0556
 8809SOL    HW127868   3.517   6.198  11.842 -0.0430  0.0455  0.3944
 8809SOL    HW227869   3.482   6.271  11.970  0.7427  1.1174  0.0101
 8810SOL     OW27870   1.768   3.861   0.832 -0.3681  0.2200 -0.4187
 8810SOL    HW127871   1.718   3.861   0.751 -1.1325  1.2398  0.0351
 8810SOL    HW227872   1.836   3.927   0.818 -0.0546 -0.1161 -0.4914
 8811SOL     OW27873   5.686   7.710   3.793  0.4290  0.2158 -0.1031
 8811SOL    HW127874   5.769   7.682   3.754  0.2452  0.0307 -0.3661
 8811SOL    HW227875   5.664   7.641   3.855 -0.1395 -0.3640 -0.9159
 8812SOL     OW27876   2.676   1.805   8.294  0.4049  0.0657  0.6188
 8812SOL    HW127877   2.699   1.750   8.219 -0.1356  0.3737  0.2170
 8812SOL    HW227878   2.699   1.894   8.266  0.0986  0.1953  0.7748
 8813SOL     OW27879   0.574   7.118  10.552 -0.2314 -0.5329  0.0859
 8813SOL    HW127880   0.539   7.119  10.463 -2.0213 -2.6046  0.6894
 8813SOL    HW227881   0.655   7.067  10.545  0.3955  0.5168 -0.5622
 8814SOL     OW27882   6.188   3.157   7.133  0.4100  0.0447  0.0484
 8814SOL    HW127883   6.226   3.070   7.147  0.5247  0.2730  1.3309
 8814SOL    HW227884   6.095   3.147   7.154  0.1666 -0.0291 -1.0037
 8815SOL     OW27885   6.984   2.977   7.060  0.0942  0.1306  0.2998
 8815SOL    HW127886   7.036   2.986   7.140  0.0774 -0.1054  0.3396
 8815SOL    HW227887   7.018   3.044   7.002  2.0267 -1.4359 -0.5206
 8816SOL     OW27888   7.146   7.795   3.645 -0.3417  0.4143 -0.2856
 8816SOL    HW127889   7.192   7.728   3.596  2.0381  1.6167  0.1473
 8816SOL    HW227890   7.085   7.834   3.582 -0.1274 -0.6052 -1.1510
 8817SOL     OW27891   7.348   2.881   1.106 -0.3971 -0.0104 -0.5421
 8817SOL    HW127892   7.429   2.879   1.054  0.1831  2.1434  0.1660
 8817SOL    HW227893   7.369   2.938   1.180 -2.3410 -0.0694  0.1094
 8818SOL     OW27894   1.190   4.140   4.419  0.1372  0.0827 -0.1902
 8818SOL    HW127895   1.179   4.208   4.353  1.1213  1.2068  0.7376
 8818SOL    HW227896   1.101   4.115   4.444 -0.2390 -0.1551 -1.7109
 8819SOL     OW27897   3.847   3.675  11.888 -0.3139  0.1382 -0.1748
 8819SOL    HW127898   3.880   3.751  11.936 -2.2671 -0.0633  1.6160
 8819SOL    HW227899   3.784   3.710  11.826  0.4891  0.1534 -1.0193
 8820SOL     OW27900   7.408   7.344  12.135 -0.2264 -0.1833  0.1708
 8820SOL    HW127901   7.356   7.320  12.058  1.1286 -2.3980 -0.1423
 8820SOL    HW227902   7.495   7.361  12.100 -0.2919  1.8604  0.8910
 8821SOL     OW27903   4.737   0.287   0.143  0.1579 -0.2679 -0.3162
 8821SOL    HW127904   4.792   0.356   0.107 -1.4006  0.4158 -1.5276
 8821SOL    HW227905   4.649   0.309   0.112 -0.5764 -2.0939  0.3650
 8822SOL     OW27906   4.741   7.242   8.825  0.2450  0.0831  0.2191
 8822SOL    HW127907   4.665   7.249   8.883  0.0306 -2.1506  0.2851
 8822SOL    HW227908   4.814   7.278   8.876 -0.3148  0.0343  1.0707
 8823SOL     OW27909   6.787   4.852   2.303  0.3451  0.4417 -0.3254
 8823SOL    HW127910   6.823   4.891   2.384  0.0399 -1.5890  0.8551
 8823SOL    HW227911   6.705   4.900   2.288  0.9930  1.6564 -0.1407
 8824SOL     OW27912   6.680   6.063   0.406 -0.1134 -0.0965 -0.4534
 8824SOL    HW127913   6.676   6.024   0.493 -1.0268 -0.5284 -0.6710
 8824SOL    HW227914   6.683   5.988   0.346  0.7614  0.1998 -0.7884
 8825SOL     OW27915   6.671   3.630   1.298  0.1996  0.5672 -0.6152
 8825SOL    HW127916   6.734   3.699   1.320  1.9018 -0.7072 -1.3091
 8825SOL    HW227917   6.712   3.583   1.226 -1.2549 -0.7521 -0.6172
 8826SOL     OW27918   0.181   7.913  11.315  0.0388  0.4007  0.0004
 8826SOL    HW127919   0.128   7.942  11.240  1.8087 -1.5118 -2.1277
 8826SOL    HW227920   0.265   7.957  11.303  0.4128 -0.0944  0.7568
 8827SOL     OW27921   6.694   2.751   8.690  0.1933 -0.3236 -0.6148
 8827SOL    HW127922   6.788   2.750   8.710  0.1066 -0.5586 -0.1937
 8827SOL    HW227923   6.686   2.809   8.615  0.6327 -0.0124 -0.4282
 8828SOL     OW27924   2.372   1.575   1.338  0.5376 -0.4506 -0.4589
 8828SOL    HW127925   2.338   1.491   1.368 -0.5542 -0.0334 -0.4736
 8828SOL    HW227926   2.421   1.554   1.258  0.7591 -1.1380 -0.1522
 8829SOL     OW27927   7.202   0.617  10.913  0.0984  0.3764 -0.5388
 8829SOL    HW127928   7.153   0.698  10.926 -0.9362 -0.6022  2.4571
 8829SOL    HW227929   7.282   0.629  10.964 -0.0622 -0.4276 -0.0676
 8830SOL     OW27930   0.302   0.547  10.965  0.4044 -0.4125  0.2814
 8830SOL    HW127931   0.382   0.547  10.912 -0.0843 -1.1731 -0.4929
 8830SOL    HW227932   0.258   0.466  10.941 -0.8541  0.2404  0.2869
 8831SOL     OW27933   4.074   3.880   3.115  0.0307  0.2029 -0.1749
 8831SOL    HW127934   4.085   3.832   3.197  0.7672  1.8705  0.7472
 8831SOL    HW227935   3.980   3.877   3.098 -0.0723 -0.5784  0.4589
 8832SOL     OW27936   4.289   1.850  10.290  0.7070 -0.0072 -0.1050
 8832SOL    HW127937   4.345   1.865  10.214  0.5475  1.8215  0.0912
 8832SOL    HW227938   4.203   1.882  10.263  0.3436 -0.5269  0.4209
 8833SOL     OW27939   2.497   4.791   1.824  0.6089  0.1951  0.2796
 8833SOL    HW127940   2.542   4.718   1.868  1.1664  0.5438  0.3009
 8833SOL    HW227941   2.494   4.766   1.732  0.9210  0.2041  0.2670
 8834SOL     OW27942   4.826   6.247   0.657 -0.3218  0.2656  0.0127
 8834SOL    HW127943   4.788   6.169   0.616  1.3108 -0.0764 -0.9469
 8834SOL    HW227944   4.912   6.218   0.687  0.3082  1.6991 -0.3306
 8835SOL     OW27945   1.427   6.609   2.248 -0.2554  0.1698  0.0190
 8835SOL    HW127946   1.361   6.539   2.243  0.1130 -0.2871  1.1076
 8835SOL    HW227947   1.510   6.563   2.234  0.2469 -0.1495  3.2759
 8836SOL     OW27948   1.724   3.361   0.250 -0.6893  0.1584  0.1599
 8836SOL    HW127949   1.662   3.401   0.311  2.3434  1.1481  2.8905
 8836SOL    HW227950   1.718   3.415   0.172 -2.5673  0.7762  0.6644
 8837SOL     OW27951   4.453   6.220   2.460 -0.3068  0.3076 -0.6124
 8837SOL    HW127952   4.469   6.211   2.554 -0.9381  0.5942 -0.4736
 8837SOL    HW227953   4.395   6.147   2.438  1.2850 -0.8564 -1.1568
 8838SOL     OW27954   7.381   7.905   4.595 -0.3300 -0.2161 -0.1042
 8838SOL    HW127955   7.307   7.844   4.597  0.2579 -0.9706 -0.5755
 8838SOL    HW227956   7.345   7.988   4.624 -1.0511 -0.9004  1.0239
 8839SOL     OW27957   6.116   6.666  10.201 -0.0587 -0.4933 -0.0900
 8839SOL    HW127958   6.027   6.702  10.205  0.3291  0.5158 -0.1592
 8839SOL    HW227959   6.104   6.571  10.204 -1.1770 -0.3910 -0.8989
 8840SOL     OW27960   7.723   3.587   2.235  0.9161 -0.8204 -0.7115
 8840SOL    HW127961   7.759   3.674   2.220 -2.0877  0.7618  0.3731
 8840SOL    HW227962   7.722   3.577   2.330 -2.9122  0.0839 -0.4773
 8841SOL     OW27963   7.725   5.875   1.487  0.2317  0.2718  0.4144
 8841SOL    HW127964   7.652   5.883   1.549  0.9475  0.7685  1.2145
 8841SOL    HW227965   7.800   5.913   1.534  1.3895 -1.7196  0.2714
 8842SOL     OW27966   6.901   2.807   3.917 -0.1775 -0.2082 -0.5644
 8842SOL    HW127967   6.855   2.763   3.988 -0.2880  1.6606  0.5783
 8842SOL    HW227968   6.833   2.854   3.869  0.0970 -0.2237 -0.9792
 8843SOL     OW27969   6.730   3.584   9.243 -0.1073 -0.2907  0.0532
 8843SOL    HW127970   6.676   3.660   9.267 -0.5201 -0.4221 -0.4506
 8843SOL    HW227971   6.778   3.564   9.323 -2.5244 -1.6132  1.2928
 8844SOL     OW27972   6.242   5.303  10.312 -0.3681  0.3004  0.1079
 8844SOL    HW127973   6.175   5.236  10.326  1.0098 -1.4346 -1.0914
 8844SOL    HW227974   6.315   5.255  10.272  1.0106  2.3915 -0.0130
 8845SOL     OW27975   7.147   2.212   8.340 -0.0936 -0.4850 -0.3848
 8845SOL    HW127976   7.130   2.253   8.425 -1.0931 -2.0182  0.1984
 8845SOL    HW227977   7.059   2.196   8.304  0.3010 -1.1378 -1.0710
 8846SOL     OW27978   2.666   5.346   9.322 -0.3128 -0.2302 -0.2371
 8846SOL    HW127979   2.574   5.370   9.315 -0.7583 -1.8893 -0.5529
 8846SOL    HW227980   2.685   5.301   9.239  0.0323 -2.1628  0.8273
 8847SOL     OW27981   0.987   0.696   3.943  0.5626  0.2558 -0.0230
 8847SOL    HW127982   0.985   0.682   4.037 -1.2856  1.4064  0.1620
 8847SOL    HW227983   1.000   0.609   3.905  0.9880 -0.2582  1.2698
 8848SOL     OW27984   5.349   5.709   6.508 -0.0906  0.8820 -0.7552
 8848SOL    HW127985   5.316   5.793   6.541  1.3547  1.1312  0.1358
 8848SOL    HW227986   5.312   5.643   6.566 -0.3809  0.9912 -0.8137
 8849SOL     OW27987   6.838   0.655   6.444  0.0044 -0.0850  0.5110
 8849SOL    HW127988   6.907   0.709   6.484  0.0510  1.1744 -1.1618
 8849SOL    HW227989   6.884   0.588   6.395  0.0176  0.1901  0.1473
 8850SOL     OW27990   6.923   1.322   8.934  0.3810  0.2483  0.4884
 8850SOL    HW127991   6.963   1.409   8.935  2.0697 -0.4683  0.3409
 8850SOL    HW227992   6.845   1.330   8.988  0.7677  1.7391  0.8634
 8851SOL     OW27993   1.018   0.040   3.192  0.7327  0.3578  0.0548
 8851SOL    HW127994   1.031   0.113   3.131  1.8722 -0.3978 -0.6705
 8851SOL    HW227995   0.931   0.053   3.228  0.6184  1.6517 -0.6353
 8852SOL     OW27996   4.578   2.684   1.125 -0.0615  0.3318  0.2471
 8852SOL    HW127997   4.517   2.627   1.080  0.4016  0.3604 -0.4314
 8852SOL    HW227998   4.644   2.706   1.059  0.3756  0.7469  0.8088
 8853SOL     OW27999   3.658   1.044   6.330  0.0610  0.0060 -0.4072
 8853SOL    HW128000   3.658   1.016   6.238 -0.0764  1.3004 -0.8230
 8853SOL    HW228001   3.656   1.139   6.325  1.9609  0.1660  0.9180
 8854SOL     OW28002   4.099   5.344   6.880 -0.3426  0.1611  0.5578
 8854SOL    HW128003   4.093   5.294   6.799 -0.0041  0.4628  0.3410
 8854SOL    HW228004   4.052   5.425   6.861  1.0215  0.8845  0.1433
 8855SOL     OW28005   0.176   4.170  11.975  0.0238  0.0429  0.4122
 8855SOL    HW128006   0.105   4.147  12.035  1.2307  0.6394  2.1460
 8855SOL    HW228007   0.217   4.087  11.953 -0.0467 -0.1195  0.8967
 8856SOL     OW28008   3.178   2.438   0.390  0.2207 -0.5363  0.2452
 8856SOL    HW128009   3.148   2.454   0.301 -0.9876  0.2359  0.7699
 8856SOL    HW228010   3.269   2.411   0.380 -0.0044 -0.8103 -1.2418
 8857SOL     OW28011   3.254   4.869  11.640 -0.0729 -0.1609 -0.4013
 8857SOL    HW128012   3.262   4.800  11.706  0.1296  1.8837  1.8616
 8857SOL    HW228013   3.339   4.914  11.642 -1.1493  2.0248  0.5227
 8858SOL     OW28014   3.263   4.210  12.188  0.3948  0.2486 -0.1707
 8858SOL    HW128015   3.257   4.158  12.268 -0.5102  0.6269  0.0178
 8858SOL    HW228016   3.230   4.152  12.119 -0.6125  0.5489  0.0383
 8859SOL     OW28017   1.296   5.187   0.438 -0.2701 -0.1042 -0.3577
 8859SOL    HW128018   1.229   5.135   0.483 -0.3136 -0.9194 -1.3290
 8859SOL    HW228019   1.365   5.199   0.503 -0.7290 -0.4843  0.2092
 8860SOL     OW28020   4.293   4.024  12.095  0.4657 -0.1499 -0.1221
 8860SOL    HW128021   4.252   4.079  12.028 -1.0101 -1.6897 -0.5458
 8860SOL    HW228022   4.224   3.964  12.122  1.2345 -0.0136  2.3296
 8861SOL     OW28023   6.173   5.796   9.856 -0.5131 -0.2324  0.0866
 8861SOL    HW128024   6.161   5.704   9.833  0.5987 -0.5967  0.8666
 8861SOL    HW228025   6.138   5.844   9.781  0.7291 -1.3216 -1.2629
 8862SOL     OW28026   1.913   6.948   7.506 -0.0679  0.3306 -0.0368
 8862SOL    HW128027   1.889   6.934   7.598  1.8554 -1.0026  0.3073
 8862SOL    HW228028   1.878   6.872   7.460  0.0907  0.3522 -0.1924
 8863SOL     OW28029   5.739   7.399  12.229 -0.0357 -0.0022 -0.2066
 8863SOL    HW128030   5.760   7.413  12.137  0.1417 -0.0815 -0.1800
 8863SOL    HW228031   5.668   7.460  12.247 -1.3697 -1.2903 -0.8866
 8864SOL     OW28032   7.262   7.735   0.043  0.2503  0.2851  0.5317
 8864SOL    HW128033   7.178   7.765   0.008  0.7724  0.5430 -0.5318
 8864SOL    HW228034   7.247   7.727   0.138 -1.1359 -0.2385  0.2891
 8865SOL     OW28035   3.861   6.114  11.691  0.3046  0.0982 -0.0060
 8865SOL    HW128036   3.867   6.038  11.749 -1.2759 -0.7323 -0.8610
 8865SOL    HW228037   3.849   6.188  11.750  0.8046 -0.4484  0.8060
 8866SOL     OW28038   4.335   1.989   9.438  0.5401  0.7033 -0.2762
 8866SOL    HW128039   4.397   2.021   9.504 -0.9103 -1.0289  2.1087
 8866SOL    HW228040   4.379   1.914   9.399  0.4031  0.0938  0.6952
 8867SOL     OW28041   3.468   5.875  10.192  0.7973 -0.0852 -0.4684
 8867SOL    HW128042   3.397   5.837  10.141 -0.2576  1.2059 -0.0015
 8867SOL    HW228043   3.539   5.887  10.129 -0.4122  1.2849 -1.6282
 8868SOL     OW28044   7.040   6.044  11.809 -0.2038 -1.0596  0.1899
 8868SOL    HW128045   6.952   6.021  11.840 -1.9603  0.3483 -3.2594
 8868SOL    HW228046   7.035   6.037  11.714  2.4755  2.1259 -0.3664
 8869SOL     OW28047   6.235   7.404  10.160 -0.3034  0.0636  0.1331
 8869SOL    HW128048   6.172   7.438  10.223 -0.6515 -1.7315  0.8071
 8869SOL    HW228049   6.257   7.317  10.192  1.2530 -0.0149 -1.0101
 8870SOL     OW28050   2.480   3.348  10.772  0.0297  0.2891  0.2332
 8870SOL    HW128051   2.565   3.307  10.752  1.6203  1.9948  2.8039
 8870SOL    HW228052   2.472   3.419  10.708  0.7197  0.2940  0.1411
 8871SOL     OW28053   5.705   7.740   0.042  0.4229 -0.1952 -0.6248
 8871SOL    HW128054   5.695   7.820   0.093 -1.9753 -2.1994  2.4916
 8871SOL    HW228055   5.798   7.718   0.049  0.6315  0.9599  0.7380
 8872SOL     OW28056   4.046   0.564   1.240 -0.2449  0.0461 -0.1659
 8872SOL    HW128057   4.117   0.556   1.304  0.4122  1.6319 -0.6485
 8872SOL    HW228058   4.086   0.539   1.157  0.0425  1.7472 -0.5838
 8873SOL     OW28059   1.083   0.020   0.000  0.0648 -0.4967  1.1954
 8873SOL    HW128060   0.990   0.006  -0.015  0.3486 -0.5737 -0.7057
 8873SOL    HW228061   1.092   0.114   0.016 -0.1574 -0.1848 -0.3847
 8874SOL     OW28062   7.902   5.324   3.228  0.0445  0.1188 -0.1007
 8874SOL    HW128063   7.871   5.279   3.307  0.0895  0.7463  0.2829
 8874SOL    HW228064   7.944   5.404   3.261  0.1743  0.3270 -0.7550
 8875SOL     OW28065   5.517   7.496   4.929 -1.0261 -0.1033  0.1810
 8875SOL    HW128066   5.441   7.455   4.969 -1.4626  0.2532 -0.2611
 8875SOL    HW228067   5.531   7.575   4.981  0.0882 -1.0056  1.3097
 8876SOL     OW28068   4.227   7.093   5.974  0.3116 -0.2443  0.2249
 8876SOL    HW128069   4.172   7.029   5.930 -0.2398 -0.3935  1.0904
 8876SOL    HW228070   4.191   7.097   6.063 -1.0988  2.8533 -0.3592
 8877SOL     OW28071   4.801   1.960   1.396  0.0701 -0.6141  0.7675
 8877SOL    HW128072   4.833   2.043   1.430 -2.1996  0.2222  1.0417
 8877SOL    HW228073   4.725   1.940   1.450 -1.0476 -1.4762 -1.0406
 8878SOL     OW28074   0.737   3.426  10.295  0.5300 -0.4455  0.4362
 8878SOL    HW128075   0.829   3.402  10.293  0.3476 -1.0956 -0.5457
 8878SOL    HW228076   0.703   3.402  10.209 -0.5327 -0.1156  0.7416
 8879SOL     OW28077   2.857   7.242  11.230  0.0279 -0.3944  0.7276
 8879SOL    HW128078   2.849   7.156  11.190 -0.4126 -0.5645  1.1726
 8879SOL    HW228079   2.797   7.240  11.304  0.4641  0.0837  1.1036
 8880SOL     OW28080   3.848   0.185   0.041  0.3050  0.5327 -0.5481
 8880SOL    HW128081   3.933   0.229   0.047  0.4413  0.1771  0.2374
 8880SOL    HW228082   3.802   0.213   0.119  0.3565 -0.6423 -0.0814
 8881SOL     OW28083   6.829   4.073   4.162 -0.0345 -0.0475  0.2840
 8881SOL    HW128084   6.774   4.065   4.084  0.2172  1.3725 -0.0599
 8881SOL    HW228085   6.770   4.108   4.229 -0.0356 -0.4657  0.5081
 8882SOL     OW28086   6.178   1.431  10.071 -0.1775  0.1340  0.3771
 8882SOL    HW128087   6.196   1.467   9.985 -0.2980  2.2260  1.1692
 8882SOL    HW228088   6.087   1.402  10.067 -0.5360  1.2566  0.1186
 8883SOL     OW28089   4.781   0.191   3.817  0.4393 -0.7658 -0.2945
 8883SOL    HW128090   4.744   0.103   3.822  0.4446 -0.8538 -1.5037
 8883SOL    HW228091   4.860   0.187   3.871  0.3543 -1.4568 -0.2103
 8884SOL     OW28092   4.800   1.535   1.711  0.3916 -0.0659 -0.2754
 8884SOL    HW128093   4.833   1.617   1.674  0.4986 -0.7984 -1.8536
 8884SOL    HW228094   4.723   1.513   1.659 -0.5031 -0.2613  1.0556
 8885SOL     OW28095   4.042   3.846   7.378  0.3120 -0.8995 -0.1967
 8885SOL    HW128096   3.950   3.857   7.351  0.6199 -0.5972 -1.1514
 8885SOL    HW228097   4.037   3.793   7.457 -0.7045 -0.7462 -0.1391
 8886SOL     OW28098   5.313   6.280   9.961 -0.2134  0.0554 -0.1845
 8886SOL    HW128099   5.218   6.295   9.966 -0.3072 -0.4548 -0.3818
 8886SOL    HW228100   5.348   6.360   9.921 -0.3577  0.9465  1.4005
 8887SOL     OW28101   0.384   6.747  10.623  0.1783 -0.2861  0.1655
 8887SOL    HW128102   0.456   6.743  10.561 -0.1843  0.2480 -0.3004
 8887SOL    HW228103   0.334   6.667  10.607 -1.0745  0.7979 -1.6955
 8888SOL     OW28104   6.364   0.727  11.113  0.0056 -0.5940  0.1320
 8888SOL    HW128105   6.413   0.755  11.036 -0.4638  1.0338  0.3901
 8888SOL    HW228106   6.410   0.648  11.143  1.6823  0.1366 -0.3756
 8889SOL     OW28107   6.992   5.777   5.023  0.4932  0.1761  0.0441
 8889SOL    HW128108   7.016   5.847   4.963 -1.4362  1.7985  1.0584
 8889SOL    HW228109   7.037   5.700   4.989  0.6598  1.3364 -2.5965
 8890SOL     OW28110   2.543   0.388   8.285 -0.0525 -0.2259  0.5820
 8890SOL    HW128111   2.498   0.330   8.223  1.2021 -1.2041  0.5352
 8890SOL    HW228112   2.478   0.455   8.307 -0.9579 -0.6087 -0.7727
 8891SOL     OW28113   7.394   6.388   8.137 -0.0991  0.3584  0.2218
 8891SOL    HW128114   7.446   6.396   8.057  1.8530 -0.6888  1.2845
 8891SOL    HW228115   7.359   6.299   8.133  1.5463 -0.4033  1.3000
 8892SOL     OW28116   3.849   4.486   3.223 -0.2012  0.2473  0.3799
 8892SOL    HW128117   3.794   4.439   3.161 -0.2847  0.4207  0.3218
 8892SOL    HW228118   3.891   4.554   3.172  2.8503 -2.0086 -0.3967
 8893SOL     OW28119   3.270   5.751  10.048  0.4752 -0.0043  0.0746
 8893SOL    HW128120   3.197   5.782  10.101  0.8259 -0.3134  0.7669
 8893SOL    HW228121   3.257   5.790   9.962 -1.1415 -0.9783 -0.1607
 8894SOL     OW28122   7.172   1.423   1.174 -0.5212 -0.0147  0.0682
 8894SOL    HW128123   7.109   1.352   1.163 -0.8628  0.1006  1.0733
 8894SOL    HW228124   7.121   1.502   1.158  0.2095 -0.0083 -2.5276
 8895SOL     OW28125   4.680   2.359   8.006 -0.6669  0.4733 -0.2166
 8895SOL    HW128126   4.646   2.445   8.031 -1.4927  0.2985 -0.6706
 8895SOL    HW228127   4.712   2.372   7.916  0.3707  0.6036  0.1647
 8896SOL     OW28128   4.822   1.390   6.686 -0.2219  0.6335 -0.0387
 8896SOL    HW128129   4.777   1.414   6.767 -2.1102  0.9164 -1.1171
 8896SOL    HW228130   4.825   1.471   6.635  2.3294  0.8348  0.3018
 8897SOL     OW28131   7.836   2.619  12.053 -0.1217  0.3723 -0.5128
 8897SOL    HW128132   7.813   2.629  11.960 -1.1975  0.4013 -0.2450
 8897SOL    HW228133   7.761   2.653  12.101  0.2580 -0.0146  0.3832
 8898SOL     OW28134   6.404   0.818   3.937  0.1766  0.5468 -0.3876
 8898SOL    HW128135   6.408   0.815   3.841  1.7957  2.3147 -0.4300
 8898SOL    HW228136   6.340   0.887   3.956 -2.2909 -1.6583 -0.0753
 8899SOL     OW28137   4.010   7.355   7.175 -0.3985  0.5032 -0.8913
 8899SOL    HW128138   4.104   7.336   7.179 -0.5719 -0.2185  0.0739
 8899SOL    HW228139   3.973   7.284   7.123 -0.2466  1.5328 -2.4681
 8900SOL     OW28140   3.648   7.420   6.924 -0.3432  0.3412  0.0697
 8900SOL    HW128141   3.662   7.473   7.003 -0.4641 -1.1155  1.1140
 8900SOL    HW228142   3.727   7.368   6.915 -1.1650 -1.0535  0.5115
 8901SOL     OW28143   4.774   0.058  10.306  0.8339  0.9542  0.1051
 8901SOL    HW128144   4.833   0.119  10.350  0.6377 -0.1563  2.0243
 8901SOL    HW228145   4.702   0.113  10.274  1.0606  1.8444  1.0662
 8902SOL     OW28146   1.541   5.791   9.680  0.9376 -0.3126  0.1727
 8902SOL    HW128147   1.625   5.835   9.664  0.0281  1.0782 -0.9457
 8902SOL    HW228148   1.502   5.782   9.593 -1.2687  1.5385  0.8804
 8903SOL     OW28149   1.958   2.506   2.246  0.6528 -0.2080  0.1327
 8903SOL    HW128150   2.014   2.455   2.187 -0.8048 -0.4492 -1.1002
 8903SOL    HW228151   1.877   2.455   2.252  0.8272 -0.2809  2.5295
 8904SOL     OW28152   6.729   6.487  10.275 -0.1478 -0.8133  0.5863
 8904SOL    HW128153   6.781   6.565  10.256 -1.2554 -0.2812 -0.4073
 8904SOL    HW228154   6.724   6.484  10.370 -2.7508  2.2065  0.7003
 8905SOL     OW28155   2.870   2.891   8.731  0.3992  0.2238  0.1475
 8905SOL    HW128156   2.866   2.986   8.736 -1.9612  0.2219 -0.4694
 8905SOL    HW228157   2.782   2.862   8.754  0.5503 -1.6952 -1.3939
 8906SOL     OW28158   7.472   2.904   8.966 -0.3214  0.3822 -0.1767
 8906SOL    HW128159   7.394   2.886   8.913 -0.8176 -0.4492  0.7978
 8906SOL    HW228160   7.530   2.831   8.948 -0.3029  0.3326  0.0868
 8907SOL     OW28161   4.191   4.371   9.455 -0.1162  0.2752  0.2846
 8907SOL    HW128162   4.229   4.291   9.420 -1.4599 -0.9683  1.5293
 8907SOL    HW228163   4.147   4.412   9.380  0.3727 -0.2714 -0.3073
 8908SOL     OW28164   7.785   0.103   2.607 -0.1037  0.3471  0.5085
 8908SOL    HW128165   7.756   0.185   2.646  0.1025  0.1906  0.9962
 8908SOL    HW228166   7.784   0.119   2.512 -1.3570  0.4834  0.5294
 8909SOL     OW28167   2.319   5.721   2.322  0.4847 -0.1994 -0.7232
 8909SOL    HW128168   2.224   5.725   2.314  0.2001  0.4428  1.9652
 8909SOL    HW228169   2.347   5.813   2.326  1.0003 -0.3797  0.1572
 8910SOL     OW28170   2.372   6.468   3.639 -0.0660  0.1240  0.3098
 8910SOL    HW128171   2.422   6.438   3.715  0.3476 -1.9549 -0.6972
 8910SOL    HW228172   2.436   6.513   3.585 -0.0808  0.5257  0.6243
 8911SOL     OW28173   6.286   7.256   9.081 -0.2336 -0.0419 -0.2335
 8911SOL    HW128174   6.210   7.201   9.102 -0.8977  1.0252  0.2681
 8911SOL    HW228175   6.315   7.226   8.995  0.2933 -2.0997  0.6114
 8912SOL     OW28176   6.147   6.899   8.971 -0.5057 -0.3979 -0.3470
 8912SOL    HW128177   6.174   6.807   8.976 -0.0556 -0.2308  0.5676
 8912SOL    HW228178   6.220   6.944   8.929 -0.4120 -0.3440 -0.1279
 8913SOL     OW28179   7.218   3.246  10.969 -0.2018 -0.4334  0.1021
 8913SOL    HW128180   7.283   3.245  11.040  0.9740 -1.7192 -0.9549
 8913SOL    HW228181   7.134   3.259  11.014  0.7749  1.7306  1.4686
 8914SOL     OW28182   5.355   3.996   6.285  0.1076  0.5395  0.3934
 8914SOL    HW128183   5.424   4.061   6.288  1.1492 -0.5551  1.1694
 8914SOL    HW228184   5.398   3.916   6.257 -1.3854  0.4198 -1.8216
 8915SOL     OW28185   4.806   4.938   9.496 -0.0973 -0.4399  0.6952
 8915SOL    HW128186   4.769   4.948   9.583 -1.2123 -0.4197  0.2354
 8915SOL    HW228187   4.871   5.007   9.489 -1.4975  0.9414  0.7534
 8916SOL     OW28188   1.973   2.953  12.187 -0.2102  0.5710 -0.0766
 8916SOL    HW128189   2.036   2.904  12.240  0.0103  0.4761 -0.4218
 8916SOL    HW228190   1.993   2.928  12.097 -0.0978  1.2851 -0.2599
 8917SOL     OW28191   0.229   6.302   9.480  0.1548 -0.0368 -0.2386
 8917SOL    HW128192   0.209   6.370   9.416  0.2659 -2.4564 -3.0459
 8917SOL    HW228193   0.324   6.292   9.475  0.2232  0.0383  0.6934
 8918SOL     OW28194   4.260   7.571   3.933  0.4962 -0.1178 -0.2921
 8918SOL    HW128195   4.226   7.504   3.992  0.2530  0.9893  0.8860
 8918SOL    HW228196   4.331   7.613   3.982 -0.6032  1.7364 -0.1520
 8919SOL     OW28197   7.044   7.794   5.576  0.3013 -0.6306  0.3410
 8919SOL    HW128198   7.006   7.758   5.496 -0.6013  1.6283 -0.3476
 8919SOL    HW228199   7.044   7.721   5.637  2.2185 -2.8027 -2.0354
 8920SOL     OW28200   6.622   6.169  12.265 -0.0189 -0.5634  0.1052
 8920SOL    HW128201   6.709   6.176  12.225 -0.0831 -1.1025 -0.1354
 8920SOL    HW228202   6.604   6.075  12.268  0.1928 -0.5859  1.8870
 8921SOL     OW28203   4.471   1.116  11.509  0.1365 -0.4697 -0.3552
 8921SOL    HW128204   4.408   1.163  11.455  1.3898  0.8176 -0.7750
 8921SOL    HW228205   4.437   1.121  11.598  0.5590  1.9052 -0.2701
 8922SOL     OW28206   2.778   7.146  10.765  0.2778  0.1699  0.2051
 8922SOL    HW128207   2.765   7.060  10.726  0.3931  0.0980  0.3275
 8922SOL    HW228208   2.700   7.160  10.819  0.7541 -0.3055  1.0235
 8923SOL     OW28209   1.817   7.841   8.044 -0.5510  0.2813  0.1064
 8923SOL    HW128210   1.837   7.767   8.101 -0.5739 -0.0020 -0.2494
 8923SOL    HW228211   1.723   7.835   8.028 -0.2258 -0.9464 -1.7257
 8924SOL     OW28212   5.771   0.118   2.213 -0.7746  0.1801  0.5404
 8924SOL    HW128213   5.795   0.148   2.125  2.3412 -0.0874  1.1910
 8924SOL    HW228214   5.780   0.023   2.210  1.0485  0.2688  1.5015
 8925SOL     OW28215   6.513   4.905   4.285  0.2591  0.1832  0.1612
 8925SOL    HW128216   6.571   4.864   4.221 -0.6485 -0.5216 -0.2360
 8925SOL    HW228217   6.508   4.841   4.356 -0.8275 -0.2259 -0.2679
 8926SOL     OW28218   6.041   4.112   2.518 -0.1178  0.4435  0.3086
 8926SOL    HW128219   6.099   4.071   2.455  0.9653 -0.2030  1.6658
 8926SOL    HW228220   6.078   4.090   2.604 -1.2319  1.7129  1.1760
 8927SOL     OW28221   7.498   5.087   9.909  0.0411 -0.3491 -0.1857
 8927SOL    HW128222   7.485   5.017   9.973  1.1438 -0.2047  0.2183
 8927SOL    HW228223   7.436   5.067   9.839 -0.4746 -1.0753  0.4561
 8928SOL     OW28224   6.625   0.306   2.435  0.2195  0.5290  0.5589
 8928SOL    HW128225   6.667   0.224   2.460 -1.5639 -0.7913 -0.5286
 8928SOL    HW228226   6.597   0.345   2.517  1.0829  0.0619  1.0939
 8929SOL     OW28227   4.393   1.758   9.624  0.7861  0.2443 -0.2071
 8929SOL    HW128228   4.365   1.816   9.696  1.6680  0.7872 -0.2809
 8929SOL    HW228229   4.318   1.701   9.608  0.4077  0.4319  0.8315
 8930SOL     OW28230   7.105   3.659   0.338  0.2948 -0.0095  0.7299
 8930SOL    HW128231   7.185   3.641   0.387 -0.1523 -1.6687  0.9384
 8930SOL    HW228232   7.059   3.575   0.337 -0.5291  0.4040 -1.0452
 8931SOL     OW28233   2.345   3.751   1.316  0.3846  0.9771 -0.1890
 8931SOL    HW128234   2.303   3.829   1.280 -1.1057  0.1900 -0.2365
 8931SOL    HW228235   2.304   3.740   1.402  0.5683  0.2494 -0.1920
 8932SOL     OW28236   2.125   2.044   1.061  0.7093  0.5090 -0.0258
 8932SOL    HW128237   2.132   2.139   1.073  0.1626  0.3920  1.2911
 8932SOL    HW228238   2.039   2.022   1.095 -0.4565 -0.0642 -3.0401
 8933SOL     OW28239   2.222   6.113   8.033 -0.2276 -0.3573 -0.2793
 8933SOL    HW128240   2.146   6.171   8.028 -0.2342 -0.3980 -0.7105
 8933SOL    HW228241   2.276   6.137   7.957 -0.1031 -0.7360 -0.3127
 8934SOL     OW28242   0.895   6.036   6.476 -0.3032 -0.1296 -0.3565
 8934SOL    HW128243   0.892   5.949   6.516 -1.3329  0.2093  0.3391
 8934SOL    HW228244   0.872   6.096   6.547 -0.3955  0.6392 -1.0263
 8935SOL     OW28245   1.172   5.764   9.059  0.3990 -0.1725  0.7677
 8935SOL    HW128246   1.203   5.843   9.103 -0.3887  1.7319 -1.8177
 8935SOL    HW228247   1.077   5.774   9.054  0.4654 -0.0468 -1.5980
 8936SOL     OW28248   2.824   0.981   3.049 -0.1029  0.7270 -0.2531
 8936SOL    HW128249   2.820   1.050   2.982 -1.7071  1.0462  0.1232
 8936SOL    HW228250   2.911   0.990   3.087  0.5528  1.0430 -1.7642
 8937SOL     OW28251   4.229   6.637  11.495  0.0463 -0.4464 -0.3283
 8937SOL    HW128252   4.306   6.636  11.552 -0.7344 -0.6906  0.7410
 8937SOL    HW228253   4.197   6.547  11.496 -2.2913  0.3143  2.0930
 8938SOL     OW28254   3.194   7.858  10.741 -0.3223 -0.6994  0.4694
 8938SOL    HW128255   3.229   7.924  10.682 -1.7015 -1.0786 -0.8479
 8938SOL    HW228256   3.266   7.796  10.754  0.1304 -0.3919 -0.5043
 8939SOL     OW28257   5.262   1.177  11.849  0.0860  0.1473  0.0616
 8939SOL    HW128258   5.247   1.155  11.757 -1.1107  0.8595  0.0713
 8939SOL    HW228259   5.206   1.252  11.866  1.9832  1.4811  0.7841
 8940SOL     OW28260   4.517   0.311  11.699  0.1387  0.5068  0.1600
 8940SOL    HW128261   4.535   0.338  11.609  1.3607  1.6197  0.7038
 8940SOL    HW228262   4.550   0.383  11.753 -1.4922  0.3331  1.4836
 8941SOL     OW28263   2.171   1.765   4.450 -0.0229 -0.5058 -0.7981
 8941SOL    HW128264   2.255   1.812   4.442  0.4040 -1.2374 -0.7079
 8941SOL    HW228265   2.120   1.818   4.511  0.1898  0.2003 -1.2136
 8942SOL     OW28266   7.400   1.871   6.074 -0.0565 -0.3698 -0.1493
 8942SOL    HW128267   7.361   1.812   6.138 -0.3487  0.0721  0.0900
 8942SOL    HW228268   7.491   1.841   6.065 -0.3927 -1.2854 -0.5656
 8943SOL     OW28269   1.978   6.485   7.159  0.1805  0.3925  0.3552
 8943SOL    HW128270   1.965   6.536   7.079 -1.9548  2.1958  1.7403
 8943SOL    HW228271   1.897   6.435   7.169  0.4011  0.2262  1.4048
 8944SOL     OW28272   7.960   1.842   0.569 -0.1972 -0.1061  0.1072
 8944SOL    HW128273   7.963   1.916   0.509 -2.1466  0.1385  0.2173
 8944SOL    HW228274   7.967   1.765   0.513  1.6287  0.1241 -0.0292
 8945SOL     OW28275   6.851   3.055   2.873 -0.1861  0.2290 -0.6579
 8945SOL    HW128276   6.788   3.067   2.802  1.0740  1.2064 -1.6479
 8945SOL    HW228277   6.935   3.084   2.837  0.2321  2.3213  1.6999
 8946SOL     OW28278   2.499   3.326   0.314  0.1278 -0.6877  0.4488
 8946SOL    HW128279   2.436   3.357   0.249 -0.4920  0.1405  1.4086
 8946SOL    HW228280   2.580   3.314   0.266 -0.5452 -0.9630 -0.6479
 8947SOL     OW28281   5.186   4.953   2.744 -0.3646  0.0465  0.4690
 8947SOL    HW128282   5.100   4.928   2.710 -0.3357 -0.2875  0.6347
 8947SOL    HW228283   5.192   4.907   2.828  0.7413 -1.4110 -0.3792
 8948SOL     OW28284   2.676   4.395   0.384  0.0260 -0.1666  0.8062
 8948SOL    HW128285   2.646   4.323   0.329  0.0321 -0.4787  1.2086
 8948SOL    HW228286   2.692   4.356   0.470 -0.5874  0.4319  1.2073
 8949SOL     OW28287   0.474   2.259   0.712  0.0144 -0.4137  0.2731
 8949SOL    HW128288   0.535   2.188   0.697  0.0610 -0.8309  2.2971
 8949SOL    HW228289   0.392   2.216   0.735 -0.6587  0.1738 -0.8936
 8950SOL     OW28290   1.957   7.102  11.544  0.3053  0.0639 -0.5046
 8950SOL    HW128291   1.894   7.164  11.581  1.8046  0.4192  1.6546
 8950SOL    HW228292   1.943   7.021  11.594  1.1315 -0.0355 -0.4188
 8951SOL     OW28293   3.069   1.069   2.096  0.1968 -0.0429 -0.1207
 8951SOL    HW128294   3.058   1.162   2.079 -3.2948 -0.1251  0.8722
 8951SOL    HW228295   3.072   1.061   2.191 -0.9542 -0.9818 -0.1304
 8952SOL     OW28296   0.633   6.157   9.918  0.3835  0.5455  0.2782
 8952SOL    HW128297   0.675   6.228   9.966 -0.8188  0.8578  0.8998
 8952SOL    HW228298   0.544   6.153   9.953  0.3535 -1.1258  0.1009
 8953SOL     OW28299   6.176   3.238   6.367  0.1399  0.0731 -0.2290
 8953SOL    HW128300   6.232   3.316   6.364  0.7454 -0.3604 -0.5364
 8953SOL    HW228301   6.148   3.231   6.458 -0.7624  1.2339 -0.4030
 8954SOL     OW28302   5.028   1.933   9.841  0.8191  0.0891 -0.7649
 8954SOL    HW128303   5.106   1.964   9.887  0.3271  1.2805 -0.6974
 8954SOL    HW228304   5.037   1.967   9.752 -0.4215  1.6968 -0.3070
 8955SOL     OW28305   2.237   2.357   8.975 -0.0793 -0.3992 -0.1528
 8955SOL    HW128306   2.286   2.424   9.022 -1.3927 -0.6025  1.6155
 8955SOL    HW228307   2.276   2.355   8.887 -0.0483  2.7398 -0.3212
 8956SOL     OW28308   5.427   1.441   6.767 -0.3715 -0.0984 -0.3772
 8956SOL    HW128309   5.476   1.484   6.838 -1.2410 -0.7332  0.6412
 8956SOL    HW228310   5.406   1.355   6.802 -1.4786 -0.1468 -1.1259
 8957SOL     OW28311   3.759   4.713   1.391  0.0992 -0.5006  0.5160
 8957SOL    HW128312   3.708   4.787   1.425 -0.8149  0.5839 -2.8411
 8957SOL    HW228313   3.724   4.637   1.436 -3.5989  0.3805 -0.5980
 8958SOL     OW28314   2.835   6.222   0.301  0.3415  0.0050 -0.3327
 8958SOL    HW128315   2.776   6.243   0.373 -0.0439  0.9205 -0.8856
 8958SOL    HW228316   2.922   6.222   0.340  0.1309  0.4490  0.1490
 8959SOL     OW28317   3.618   1.411   1.424  0.0934  0.3796  0.6220
 8959SOL    HW128318   3.635   1.321   1.451 -0.3745 -0.2676 -1.0712
 8959SOL    HW228319   3.534   1.433   1.462 -0.4520 -0.4263 -0.0796
 8960SOL     OW28320   3.865   2.695   4.925  0.4023  0.2897 -0.3029
 8960SOL    HW128321   3.960   2.695   4.938  0.1883 -2.0622  2.2756
 8960SOL    HW228322   3.840   2.787   4.928  2.3648  0.8482  1.6563
 8961SOL     OW28323   5.241   3.927   6.514 -0.0915 -0.1567 -0.0788
 8961SOL    HW128324   5.282   3.977   6.443  0.5303 -0.4040  0.0999
 8961SOL    HW228325   5.224   3.841   6.476  0.8553 -0.5013  0.2667
 8962SOL     OW28326   3.985   2.773   5.553  0.5115 -0.1000 -0.1618
 8962SOL    HW128327   3.912   2.831   5.576  0.5443  0.5536 -1.6001
 8962SOL    HW228328   3.943   2.698   5.511  0.6266 -0.0088 -0.4398
 8963SOL     OW28329   5.481   7.860   4.248 -0.2477 -0.3063 -0.2371
 8963SOL    HW128330   5.575   7.852   4.263  0.1382  1.6329 -1.1778
 8963SOL    HW228331   5.443   7.867   4.335  0.5598 -0.4351  0.1352
 8964SOL     OW28332   4.331   6.625  10.073 -0.0451 -0.5873  0.2123
 8964SOL    HW128333   4.258   6.672  10.113 -1.8613 -1.8836 -1.4248
 8964SOL    HW228334   4.313   6.629   9.979  1.4136 -1.8992 -0.1607
 8965SOL     OW28335   6.596   3.127   8.150 -0.1570 -0.1945 -0.4818
 8965SOL    HW128336   6.655   3.175   8.208  1.0400 -0.2149 -1.6313
 8965SOL    HW228337   6.645   3.119   8.068 -2.0009  0.3572 -1.6991
 8966SOL     OW28338   4.678   7.182   9.922  0.0731  0.0490  0.3356
 8966SOL    HW128339   4.761   7.188   9.876 -0.6136  2.3443 -0.7501
 8966SOL    HW228340   4.627   7.119   9.871  0.0891  0.9403 -0.8255
 8967SOL     OW28341   6.997   1.672   7.371  0.0333 -0.4431 -0.1033
 8967SOL    HW128342   7.073   1.614   7.371 -1.1989 -2.1512 -1.0973
 8967SOL    HW228343   7.024   1.748   7.423  2.5279 -0.8160 -0.7540
 8968SOL     OW28344   7.568   6.625   1.425  0.3686  0.0249 -0.0560
 8968SOL    HW128345   7.566   6.555   1.491 -0.2054 -0.4233 -0.5417
 8968SOL    HW228346   7.580   6.579   1.342 -1.8003  0.3243 -0.5856
 8969SOL     OW28347   2.667   7.574   2.060 -0.0409 -0.2738 -0.3129
 8969SOL    HW128348   2.593   7.527   2.098 -2.1466  3.7837  1.1938
 8969SOL    HW228349   2.637   7.601   1.973  0.3227  0.0053 -0.3575
 8970SOL     OW28350   5.750   2.415   6.629 -0.4399 -0.0091 -0.6889
 8970SOL    HW128351   5.746   2.507   6.652 -0.0242  0.5969 -2.8154
 8970SOL    HW228352   5.659   2.385   6.629 -0.6553  0.6528 -0.9569
 8971SOL     OW28353   3.595   3.340   0.965  0.3570 -1.2823 -0.5089
 8971SOL    HW128354   3.685   3.349   0.934  0.2110  0.5215 -0.4893
 8971SOL    HW228355   3.602   3.277   1.037  1.5836 -1.2948 -0.6074
 8972SOL     OW28356   4.142   0.005  10.894 -0.1799  0.1934  0.5134
 8972SOL    HW128357   4.106   0.079  10.944  0.2440  1.9090 -1.5675
 8972SOL    HW228358   4.237   0.016  10.900 -0.1204  0.6264 -0.8643
 8973SOL     OW28359   5.233   4.751  11.573 -0.0237 -0.3668  0.4706
 8973SOL    HW128360   5.252   4.822  11.634 -0.9414  0.7415 -0.4807
 8973SOL    HW228361   5.254   4.787  11.487  1.1819 -1.8762  0.0887
 8974SOL     OW28362   7.018   7.161   1.769  0.2231 -0.8582 -0.8151
 8974SOL    HW128363   7.028   7.243   1.816  0.9763 -0.6667 -1.2957
 8974SOL    HW228364   6.971   7.185   1.689  0.4547 -0.8938 -0.9617
 8975SOL     OW28365   5.516   2.552   7.612  0.3121 -0.1667  0.3292
 8975SOL    HW128366   5.521   2.515   7.524  0.4772 -0.3378  0.4101
 8975SOL    HW228367   5.430   2.524   7.644 -0.2442  0.8614 -0.2037
 8976SOL     OW28368   5.236   2.980   8.799  0.0721  0.4228  0.2794
 8976SOL    HW128369   5.254   3.053   8.740 -0.1779  0.9522  0.8526
 8976SOL    HW228370   5.306   2.984   8.864 -0.5701  0.8561  0.9664
 8977SOL     OW28371   5.418   2.264   5.401 -0.1648 -0.5576  0.6080
 8977SOL    HW128372   5.442   2.242   5.311 -1.0223 -0.8453  0.4453
 8977SOL    HW228373   5.463   2.198   5.454  3.3523  1.6918  0.7418
 8978SOL     OW28374   1.125   5.331   3.452  0.2780  0.0047 -0.3465
 8978SOL    HW128375   1.218   5.309   3.459  1.1106  3.4603  2.5059
 8978SOL    HW228376   1.080   5.260   3.498  1.3747 -1.9433 -2.1397
 8979SOL     OW28377   6.691   2.426   7.923 -0.4962  0.1853  0.1245
 8979SOL    HW128378   6.687   2.351   7.863  0.1965  0.6641 -0.5297
 8979SOL    HW228379   6.777   2.464   7.908 -0.4171  0.4678  1.2510
 8980SOL     OW28380   0.381   7.673   6.468 -0.7672  0.1971 -0.3382
 8980SOL    HW128381   0.372   7.597   6.525  1.0455 -0.3266 -0.6949
 8980SOL    HW228382   0.337   7.648   6.387 -0.0002 -0.5708 -0.5287
 8981SOL     OW28383   0.947   1.561   5.574  0.3777 -0.0304 -0.0674
 8981SOL    HW128384   0.919   1.652   5.587 -1.3575 -0.5817  0.2804
 8981SOL    HW228385   0.878   1.509   5.614  1.3855 -1.5216 -0.2059
 8982SOL     OW28386   4.070   4.846   9.985 -0.0622 -0.3956 -0.4906
 8982SOL    HW128387   4.162   4.836   9.963  0.5647 -2.3118  2.3936
 8982SOL    HW228388   4.034   4.758   9.977 -1.1770 -0.0179  0.2063
 8983SOL     OW28389   0.884   1.188  10.771 -0.3095  0.0083  0.2625
 8983SOL    HW128390   0.804   1.236  10.749 -0.0913  0.5971  0.7276
 8983SOL    HW228391   0.883   1.184  10.866  1.6951  2.6451  0.4935
 8984SOL     OW28392   6.911   1.250  10.383 -0.1203 -0.0411 -0.1898
 8984SOL    HW128393   6.987   1.304  10.403 -0.7718  0.8144  0.0433
 8984SOL    HW228394   6.896   1.199  10.463 -0.3569  0.4778  0.0970
 8985SOL     OW28395   4.641   3.574   7.748  0.2216  0.2538  0.3835
 8985SOL    HW128396   4.736   3.587   7.752  0.1416  0.7231  0.8119
 8985SOL    HW228397   4.605   3.661   7.760 -0.2786  0.0056  0.6814
 8986SOL     OW28398   4.028   1.818   4.922 -0.3773 -0.5559 -0.1227
 8986SOL    HW128399   3.997   1.749   4.982  0.8921 -0.8005  0.2861
 8986SOL    HW228400   4.121   1.799   4.910 -0.3377  0.2305 -1.1983
 8987SOL     OW28401   1.705   5.631   7.610 -0.2818 -0.0211  0.4401
 8987SOL    HW128402   1.679   5.564   7.548  2.9693  0.5219 -1.7500
 8987SOL    HW228403   1.692   5.714   7.564 -0.6635  0.6251  1.6529
 8988SOL     OW28404   7.236   4.209   4.727 -0.3836  0.2858  0.0237
 8988SOL    HW128405   7.256   4.302   4.717  0.4517  0.1147  0.0473
 8988SOL    HW228406   7.144   4.202   4.701  0.2110  0.7233 -2.4809
 8989SOL     OW28407   0.596   5.165   1.288 -0.3171  0.0652 -0.6697
 8989SOL    HW128408   0.660   5.198   1.352 -0.2331  1.6617 -1.5250
 8989SOL    HW228409   0.526   5.130   1.342 -0.3233  1.5197  0.3545
 8990SOL     OW28410   1.290   5.768   7.596  0.4498  0.3111 -0.1350
 8990SOL    HW128411   1.245   5.713   7.532  0.3182  1.1749 -0.8062
 8990SOL    HW228412   1.306   5.710   7.671 -0.8614 -0.2982 -0.2908
 8991SOL     OW28413   0.473   5.770   8.674 -0.1247 -0.5141  0.0710
 8991SOL    HW128414   0.529   5.776   8.751  1.9003  0.8012 -1.3982
 8991SOL    HW228415   0.483   5.680   8.643 -0.4267 -0.8530  0.9180
 8992SOL     OW28416   4.536   2.388   5.013 -0.0479  0.0874  0.0103
 8992SOL    HW128417   4.489   2.325   5.068 -1.0715  1.9182  1.3418
 8992SOL    HW228418   4.504   2.473   5.041  0.6232  1.2089 -2.3334
 8993SOL     OW28419   5.167   0.493  10.875  0.1347  0.2895  0.3514
 8993SOL    HW128420   5.202   0.411  10.909  0.0299  0.0291 -0.1626
 8993SOL    HW228421   5.121   0.532  10.949 -0.4449 -0.4705  0.4006
 8994SOL     OW28422   7.027   2.700  11.124  0.1405 -0.0044  1.2458
 8994SOL    HW128423   7.090   2.636  11.157 -0.6104 -0.9381  0.9077
 8994SOL    HW228424   6.967   2.715  11.197  0.0725  0.0038  1.1876
 8995SOL     OW28425   1.970   1.814   8.155 -0.1466 -0.2943  0.7269
 8995SOL    HW128426   1.920   1.732   8.150 -0.5831 -0.0628  1.2491
 8995SOL    HW228427   2.055   1.789   8.191 -0.2574 -0.5225  0.8280
 8996SOL     OW28428   1.881   0.760   7.632  0.1842  0.0747  0.5090
 8996SOL    HW128429   1.950   0.696   7.615  0.4731 -0.6754  3.7913
 8996SOL    HW228430   1.927   0.844   7.638  0.1555  0.2610 -1.3038
 8997SOL     OW28431   5.068   5.862   9.432  0.1200 -0.1498 -0.2640
 8997SOL    HW128432   5.057   5.920   9.357 -0.2226 -1.7910 -1.5485
 8997SOL    HW228433   5.006   5.791   9.416 -0.6988 -0.0463  2.1162
 8998SOL     OW28434   2.621   7.618  11.303  0.3298 -0.3129  0.1381
 8998SOL    HW128435   2.650   7.561  11.232 -1.6109 -1.0459 -0.1299
 8998SOL    HW228436   2.606   7.558  11.376  0.1671  0.1442  0.4834
 8999SOL     OW28437   0.301   6.304   0.697  0.6731  0.3144 -0.1707
 8999SOL    HW128438   0.227   6.246   0.718  1.2780 -0.1550  0.7374
 8999SOL    HW228439   0.288   6.380   0.753  0.6756  0.3936 -0.2791
 9000SOL     OW28440   0.063   0.385   1.246 -0.6019  0.5538 -0.6098
 9000SOL    HW128441   0.064   0.323   1.319 -0.3131  2.1671  0.8142
 9000SOL    HW228442   0.116   0.342   1.178  0.2883 -0.4085  0.6291
 9001SOL     OW28443   0.498   5.551  11.067  0.1856  0.5338  0.3690
 9001SOL    HW128444   0.562   5.619  11.049  1.5586 -1.1055 -1.4622
 9001SOL    HW228445   0.550   5.473  11.087 -1.2457 -0.4787  0.3462
 9002SOL     OW28446   2.620   5.718   7.445  0.1937  0.5797  0.0479
 9002SOL    HW128447   2.665   5.663   7.509  0.3024  0.2655 -0.2944
 9002SOL    HW228448   2.527   5.694   7.453  0.3297 -0.2366 -0.6483
 9003SOL     OW28449   4.562   1.930  11.637 -1.0987 -0.1598  0.2798
 9003SOL    HW128450   4.576   1.896  11.725  0.3429  0.5445  0.3548
 9003SOL    HW228451   4.646   1.969  11.613 -0.7166 -2.2444 -2.2639
 9004SOL     OW28452   5.684   1.640  10.371 -0.3272  0.5668 -0.2102
 9004SOL    HW128453   5.634   1.606  10.445 -1.5631  1.9890 -0.3402
 9004SOL    HW228454   5.760   1.582  10.365  0.9034  1.5525  3.4174
 9005SOL     OW28455   1.491   7.255   4.067  0.0953 -0.5824 -0.1437
 9005SOL    HW128456   1.518   7.169   4.100 -1.0353 -1.4224 -1.3317
 9005SOL    HW228457   1.404   7.269   4.106 -0.3229 -0.6218 -1.0369
 9006SOL     OW28458   2.256   7.597   9.988  0.1557  0.2611 -0.0821
 9006SOL    HW128459   2.307   7.650   9.926 -0.9709  0.7556 -0.6158
 9006SOL    HW228460   2.320   7.540  10.030  1.6776  2.8742  1.4351
 9007SOL     OW28461   2.993   5.209   9.349 -0.2492  0.2209  0.1609
 9007SOL    HW128462   2.965   5.136   9.404  1.7975 -2.2059 -1.7851
 9007SOL    HW228463   3.061   5.253   9.400 -1.2164  0.5672  1.1940
 9008SOL     OW28464   2.910   7.507   9.651 -0.3812 -0.5519 -0.2464
 9008SOL    HW128465   2.846   7.556   9.701 -0.4107 -0.7014 -0.1372
 9008SOL    HW228466   2.994   7.543   9.677 -0.2410 -1.9570  1.4195
 9009SOL     OW28467   5.678   5.045   4.934 -0.4308 -0.1113  0.3089
 9009SOL    HW128468   5.658   5.071   5.024 -1.3954  0.1325  0.0334
 9009SOL    HW228469   5.736   4.970   4.943 -0.7495 -0.2699  1.1347
 9010SOL     OW28470   0.545   7.933   1.587 -0.3138  0.9474  0.1381
 9010SOL    HW128471   0.459   7.945   1.547 -0.6129 -0.4943  0.2807
 9010SOL    HW228472   0.601   7.904   1.515 -0.5237 -0.3369  0.4686
 9011SOL     OW28473   4.027   0.306  11.724 -0.0034 -0.4966 -0.1366
 9011SOL    HW128474   3.998   0.341  11.808 -0.5527  0.7433 -0.8214
 9011SOL    HW228475   3.947   0.278  11.680  0.4274 -2.7690  0.4207
 9012SOL     OW28476   6.273   0.376  11.778 -0.1992  0.2217 -0.2944
 9012SOL    HW128477   6.329   0.381  11.701 -0.7645 -0.7458 -0.7914
 9012SOL    HW228478   6.282   0.461  11.821  1.3379  0.2218 -0.5726
 9013SOL     OW28479   0.433   6.741   1.205  0.4772 -0.2786  0.4864
 9013SOL    HW128480   0.506   6.723   1.264  0.0254 -0.3241  1.0337
 9013SOL    HW228481   0.436   6.835   1.191  0.9237 -0.3418  0.1336
 9014SOL     OW28482   7.295   5.910   1.153  0.2691  0.1906 -0.2494
 9014SOL    HW128483   7.212   5.952   1.129  0.3308  0.9198  0.7482
 9014SOL    HW228484   7.286   5.821   1.120 -0.7668  0.3623 -0.4937
 9015SOL     OW28485   5.185   7.229   2.691  0.1964 -0.1870 -0.1639
 9015SOL    HW128486   5.168   7.321   2.669 -0.5153 -0.2247  0.2103
 9015SOL    HW228487   5.099   7.189   2.696  0.4183 -0.5337  1.1534
 9016SOL     OW28488   0.777   3.387   3.668  0.0989  0.3429 -0.0361
 9016SOL    HW128489   0.816   3.441   3.737 -0.6714 -0.5724  1.1523
 9016SOL    HW228490   0.725   3.322   3.715  2.4166 -2.6585 -1.2466
 9017SOL     OW28491   1.323   5.193   4.531 -0.0051 -0.4644 -0.0745
 9017SOL    HW128492   1.357   5.269   4.578 -1.5098 -0.4449  1.0278
 9017SOL    HW228493   1.349   5.208   4.440  0.6459  0.8199  0.3021
 9018SOL     OW28494   5.589   0.892   6.523 -0.0428  0.3846 -0.0351
 9018SOL    HW128495   5.560   0.942   6.447  0.1071 -0.5925 -0.7526
 9018SOL    HW228496   5.673   0.853   6.496 -0.5769 -0.9619  0.1714
 9019SOL     OW28497   0.220   3.861  12.214  0.1364  0.5483  0.3164
 9019SOL    HW128498   0.219   3.768  12.193  0.9903  0.9891 -2.0119
 9019SOL    HW228499   0.310   3.879  12.240  0.2121  0.8738 -0.1513
 9020SOL     OW28500   1.731   5.401   0.830 -0.1893  0.1270 -0.4975
 9020SOL    HW128501   1.775   5.338   0.773 -2.9138 -0.6592 -1.9304
 9020SOL    HW228502   1.729   5.359   0.916  1.3656  0.0170 -0.4794
 9021SOL     OW28503   3.611   4.478   4.529  0.0317  0.1293  0.0348
 9021SOL    HW128504   3.613   4.571   4.504  1.1395  0.4929  1.3435
 9021SOL    HW228505   3.527   4.466   4.574 -1.3640 -0.2056 -2.4790
 9022SOL     OW28506   0.104   7.841   2.344 -0.2970 -0.1625  0.3104
 9022SOL    HW128507   0.138   7.798   2.423 -1.2067 -1.8247 -0.1455
 9022SOL    HW228508   0.009   7.840   2.355 -0.4716 -0.9376 -1.0260
 9023SOL     OW28509   7.560   6.975  11.686 -0.5521  0.0016 -0.3587
 9023SOL    HW128510   7.629   7.040  11.676 -1.6976  1.5372  1.0878
 9023SOL    HW228511   7.505   6.985  11.608 -0.8475  0.9704 -0.0412
 9024SOL     OW28512   3.751   2.004   0.977  0.4611 -0.3269 -0.1733
 9024SOL    HW128513   3.748   1.930   1.038 -0.3580 -0.0821  0.1021
 9024SOL    HW228514   3.665   2.004   0.935  0.2009  0.8477  0.3054
 9025SOL     OW28515   5.699   1.671   0.597 -0.0129  0.0505  0.5626
 9025SOL    HW128516   5.707   1.657   0.691  0.4968  0.1969  0.5441
 9025SOL    HW228517   5.641   1.601   0.567  1.7704 -1.5309  0.6068
 9026SOL     OW28518   5.927   4.089   8.899 -0.6015 -0.4095  0.4569
 9026SOL    HW128519   5.968   4.144   8.832  1.3257 -0.7672  1.2770
 9026SOL    HW228520   5.888   4.017   8.850 -0.4324  0.0645 -0.3909
 9027SOL     OW28521   6.057   5.084  11.886 -0.3466  0.3548 -0.1711
 9027SOL    HW128522   5.999   5.154  11.855 -0.5820 -0.4184 -1.5679
 9027SOL    HW228523   6.071   5.029  11.809  1.3053 -0.1335  0.4367
 9028SOL     OW28524   0.873   2.481   9.943  0.1123 -0.6794 -0.5875
 9028SOL    HW128525   0.949   2.448   9.991 -0.1714 -1.4316 -0.6382
 9028SOL    HW228526   0.901   2.480   9.851  0.1275 -0.7204 -0.5826
 9029SOL     OW28527   5.565   4.647  10.343 -0.4970 -0.7571 -0.8673
 9029SOL    HW128528   5.654   4.620  10.365 -1.0358 -2.0244 -0.1535
 9029SOL    HW228529   5.536   4.699  10.419 -0.3951 -0.4081 -1.0659
 9030SOL     OW28530   1.132   7.351   4.653  0.0118  0.4351 -0.0079
 9030SOL    HW128531   1.061   7.364   4.590  0.1296  1.2270  0.0104
 9030SOL    HW228532   1.211   7.345   4.599 -0.0485 -0.4007 -0.0245
 9031SOL     OW28533   4.335   3.044  11.257  0.0510 -0.0669 -0.1176
 9031SOL    HW128534   4.365   3.135  11.258 -0.4887  0.1142  0.8575
 9031SOL    HW228535   4.402   2.998  11.206 -0.2450  1.0512 -1.5833
 9032SOL     OW28536   3.871   4.307  11.463 -0.1917  0.0877  0.3919
 9032SOL    HW128537   3.843   4.288  11.553 -0.8442 -0.5842  0.0665
 9032SOL    HW228538   3.952   4.356  11.472 -0.3613  0.2032  1.3524
 9033SOL     OW28539   4.208   4.347   0.647  0.1633 -0.2021 -0.3777
 9033SOL    HW128540   4.220   4.305   0.732 -0.2891  1.4976  0.5695
 9033SOL    HW228541   4.124   4.316   0.615  0.2274 -0.6665 -0.0927
 9034SOL     OW28542   6.529   2.925   7.070  0.1590  0.2673 -0.3332
 9034SOL    HW128543   6.439   2.919   7.101  0.8815  0.8432  2.0963
 9034SOL    HW228544   6.527   2.993   7.003 -1.2147  0.1882 -0.3984
 9035SOL     OW28545   6.047   2.084   0.662  0.0151  0.6722 -0.2377
 9035SOL    HW128546   6.063   2.007   0.717  0.7687 -0.5580 -2.0834
 9035SOL    HW228547   6.091   2.156   0.709 -1.4816  0.2496  1.9873
 9036SOL     OW28548   0.493   6.536  12.371  0.3571 -0.1577  0.2323
 9036SOL    HW128549   0.526   6.448  12.386  3.2515  0.6196 -0.8916
 9036SOL    HW228550   0.509   6.582  12.453 -0.9647 -0.5898  0.7506
 9037SOL     OW28551   0.718   3.737   0.541  0.1725  0.4270 -0.0700
 9037SOL    HW128552   0.745   3.650   0.513  0.8224  1.5085 -3.1692
 9037SOL    HW228553   0.635   3.752   0.495  0.8245  1.9877 -0.8006
 9038SOL     OW28554   7.611   0.748  12.225  0.0109  0.0279 -0.2826
 9038SOL    HW128555   7.577   0.757  12.136  1.7164  1.2154 -0.8791
 9038SOL    HW228556   7.569   0.669  12.260 -1.2174 -0.0624 -1.8840
 9039SOL     OW28557   5.291   1.872   5.300  0.0971 -0.6324 -0.3166
 9039SOL    HW128558   5.209   1.849   5.344 -0.1389 -0.5141 -0.6923
 9039SOL    HW228559   5.329   1.939   5.357 -0.9570  0.6535 -1.0563
 9040SOL     OW28560   0.727   1.933   6.612 -0.4725  0.0841  0.0222
 9040SOL    HW128561   0.772   1.854   6.643  0.6654  1.1256  1.1429
 9040SOL    HW228562   0.692   1.973   6.692 -0.4398  1.0572 -0.4378
 9041SOL     OW28563   5.877   5.472  10.880  0.0130 -0.6756  0.6955
 9041SOL    HW128564   5.902   5.544  10.821  0.4493  1.0716  2.8917
 9041SOL    HW228565   5.877   5.395  10.824  0.3400  0.8887 -1.6030
 9042SOL     OW28566   5.732   3.304  11.507 -0.2511  0.2405 -0.0753
 9042SOL    HW128567   5.811   3.279  11.458  0.1843 -0.6930  1.0544
 9042SOL    HW228568   5.754   3.286  11.599 -1.5801  0.5055  0.3170
 9043SOL     OW28569   1.091   3.914   5.019  0.5376 -0.0364 -0.4433
 9043SOL    HW128570   1.041   3.900   5.099 -0.9383 -0.3576 -1.3737
 9043SOL    HW228571   1.133   3.998   5.031  0.6935 -0.2865  0.8429
 9044SOL     OW28572   5.474   4.679   8.736 -0.2665 -0.4837  0.2409
 9044SOL    HW128573   5.462   4.649   8.826 -1.4657  1.1905  0.7058
 9044SOL    HW228574   5.405   4.635   8.686 -1.3062  0.5349  0.7040
 9045SOL     OW28575   3.716   1.992   3.872 -0.1224  0.1360 -0.5088
 9045SOL    HW128576   3.809   1.999   3.849 -0.1524  2.8969 -0.0827
 9045SOL    HW228577   3.716   1.957   3.961  0.6106  1.1940 -0.0697
 9046SOL     OW28578   4.512   7.752  11.483 -0.3710  0.4019 -0.5670
 9046SOL    HW128579   4.592   7.744  11.432  1.6687 -0.0940  2.4537
 9046SOL    HW228580   4.476   7.837  11.458  0.9215  0.5091 -2.2108
 9047SOL     OW28581   3.792   2.767   7.212  0.3394  0.2174  0.8550
 9047SOL    HW128582   3.711   2.717   7.197  1.4527 -1.6733  0.8336
 9047SOL    HW228583   3.785   2.795   7.304 -0.6691  0.7487  0.6336
 9048SOL     OW28584   0.623   4.548   4.584 -0.5541  0.7580 -0.1777
 9048SOL    HW128585   0.679   4.550   4.661 -0.6093  0.6597 -0.1344
 9048SOL    HW228586   0.569   4.626   4.592 -2.4830 -0.6010  1.3374
 9049SOL     OW28587   4.727   4.182   6.227  0.5313  0.3277  0.3705
 9049SOL    HW128588   4.668   4.218   6.161  2.0139 -0.3721 -1.4107
 9049SOL    HW228589   4.772   4.257   6.264 -0.3452  0.7271  0.6681
 9050SOL     OW28590   7.014   4.678   2.746  0.7981 -0.3355  0.0005
 9050SOL    HW128591   6.967   4.594   2.746 -1.3844  0.7994 -0.7408
 9050SOL    HW228592   7.031   4.696   2.838  0.7355 -1.3096  0.2132
 9051SOL     OW28593   0.634   4.964   1.096  0.1912  0.6058  0.5205
 9051SOL    HW128594   0.696   4.970   1.023  1.1288 -0.6344  1.1804
 9051SOL    HW228595   0.645   5.046   1.144 -0.9265  1.7353 -1.0784
 9052SOL     OW28596   1.678   3.381   2.913 -0.0296  0.2918 -0.7263
 9052SOL    HW128597   1.679   3.402   2.820  0.1830  0.7490 -0.6258
 9052SOL    HW228598   1.603   3.428   2.949  0.2891  0.6710 -0.5473
 9053SOL     OW28599   1.384   5.985   2.708 -0.7604 -0.3446  0.3279
 9053SOL    HW128600   1.476   5.962   2.695 -0.1398  1.5151  1.0497
 9053SOL    HW228601   1.349   5.996   2.620  0.5213  1.7082 -0.0069
 9054SOL     OW28602   7.109   0.967   9.517  1.3878 -0.3582 -0.4407
 9054SOL    HW128603   7.165   1.027   9.567  2.8934 -2.2229  0.2249
 9054SOL    HW228604   7.118   0.883   9.562  1.3676 -1.6969 -2.8134
 9055SOL     OW28605   4.217   7.243   4.306 -0.4336  0.0477  0.4435
 9055SOL    HW128606   4.286   7.184   4.333 -1.0235 -1.1634 -0.5996
 9055SOL    HW228607   4.261   7.327   4.292  0.2468  0.1721  2.9104
 9056SOL     OW28608   3.065   5.131  11.948  0.4525 -0.4749  0.2358
 9056SOL    HW128609   2.998   5.102  12.010 -1.5204 -2.9352 -2.7058
 9056SOL    HW228610   3.148   5.103  11.987 -0.5143 -0.3747  2.4876
 9057SOL     OW28611   2.542   7.173  11.756 -0.6752  0.1348 -0.0741
 9057SOL    HW128612   2.492   7.201  11.679  0.1198 -0.3290 -0.7816
 9057SOL    HW228613   2.626   7.143  11.720  0.0423  0.7174  1.0609
 9058SOL     OW28614   4.293   4.604   1.118  0.3320 -0.0364  0.0206
 9058SOL    HW128615   4.350   4.593   1.194 -0.1652 -2.7224  0.0928
 9058SOL    HW228616   4.348   4.646   1.052  1.5669 -0.0670  0.9983
 9059SOL     OW28617   3.684   6.248   7.114  0.4273 -0.3510  0.2392
 9059SOL    HW128618   3.699   6.202   7.197  0.9570  0.3770  0.5594
 9059SOL    HW228619   3.653   6.335   7.141  2.2045  0.4745 -0.2710
 9060SOL     OW28620   3.715   6.015   3.236 -0.2666 -0.3148 -0.1200
 9060SOL    HW128621   3.707   5.981   3.146  0.1939  0.0683 -0.3076
 9060SOL    HW228622   3.795   6.066   3.235 -0.3079 -0.2354  0.4942
 9061SOL     OW28623   3.400   7.742   3.723 -0.1963 -0.1423  0.3669
 9061SOL    HW128624   3.441   7.655   3.731 -0.3243 -0.1816  0.6231
 9061SOL    HW228625   3.377   7.765   3.813  0.8117  0.6287  0.4464
 9062SOL     OW28626   7.756   2.090   2.364  0.3778 -0.4957 -0.0352
 9062SOL    HW128627   7.686   2.026   2.353  0.3789 -0.1023 -3.3551
 9062SOL    HW228628   7.836   2.038   2.372 -0.0051 -0.8992  1.5287
 9063SOL     OW28629   5.979   6.260  10.842  0.0825 -0.0688  0.1288
 9063SOL    HW128630   6.025   6.345  10.843  1.5202 -0.7471 -1.5811
 9063SOL    HW228631   5.975   6.234  10.934  0.7388  1.2840  0.5801
 9064SOL     OW28632   0.157   3.755   9.270  0.0144  0.3712  0.0930
 9064SOL    HW128633   0.169   3.675   9.219  1.0036  0.8135 -0.3789
 9064SOL    HW228634   0.065   3.779   9.255  0.4030  0.8126 -2.0058
 9065SOL     OW28635   2.781   3.221   9.884  0.0862  0.5834  0.1199
 9065SOL    HW128636   2.808   3.310   9.907  0.6191  0.3199  0.5398
 9065SOL    HW228637   2.858   3.184   9.842 -0.7193  0.9042 -1.7192
 9066SOL     OW28638   7.557   6.624   7.210 -0.1177  0.4677 -0.2513
 9066SOL    HW128639   7.497   6.636   7.136  0.0016  0.8905 -0.2824
 9066SOL    HW228640   7.500   6.628   7.287 -0.5469 -1.9259 -0.3621
 9067SOL     OW28641   3.558   0.985   1.871 -0.5386 -0.2080  0.1034
 9067SOL    HW128642   3.490   0.941   1.922 -0.2559 -1.2870 -0.4233
 9067SOL    HW228643   3.641   0.955   1.908 -0.3144 -1.4290 -1.2851
 9068SOL     OW28644   6.500   2.352   7.532 -0.0983  0.5045 -0.2904
 9068SOL    HW128645   6.582   2.354   7.484 -0.2533  0.3722 -0.5649
 9068SOL    HW228646   6.432   2.356   7.464 -0.3209  0.2025 -0.0891
 9069SOL     OW28647   6.810   6.856  10.546 -0.0776  0.1609 -0.6492
 9069SOL    HW128648   6.889   6.856  10.601  0.3598 -2.1575 -1.1836
 9069SOL    HW228649   6.738   6.851  10.609  0.3219 -0.2990 -0.2170
 9070SOL     OW28650   1.355   6.442  12.236  0.0185 -0.2931  0.8715
 9070SOL    HW128651   1.366   6.512  12.170 -1.1459 -1.4517 -0.6189
 9070SOL    HW228652   1.271   6.461  12.277 -0.0194 -0.4878  0.8822
 9071SOL     OW28653   5.793   3.520   1.547 -0.2070 -0.2950  0.0977
 9071SOL    HW128654   5.771   3.519   1.641  0.4167 -1.1181  0.2482
 9071SOL    HW228655   5.803   3.428   1.524 -0.1720 -0.0883 -0.7429
 9072SOL     OW28656   1.755   0.501   4.488 -0.0578 -0.1982  0.0279
 9072SOL    HW128657   1.693   0.567   4.456  0.1494  0.4102  0.8605
 9072SOL    HW228658   1.700   0.432   4.525 -0.2412  0.3833  0.8473
 9073SOL     OW28659   2.348   1.581   4.127  0.0194  0.2629  0.0362
 9073SOL    HW128660   2.309   1.607   4.043 -0.9130 -0.5145  0.2083
 9073SOL    HW228661   2.308   1.496   4.146  0.4176  0.3130  1.1405
 9074SOL     OW28662   6.486   4.918   2.887 -0.0144  0.0480 -0.0692
 9074SOL    HW128663   6.535   5.000   2.890 -0.2001  0.1598 -0.0990
 9074SOL    HW228664   6.482   4.889   2.978  1.9887 -1.0833 -0.2700
 9075SOL     OW28665   5.369   6.214   3.668 -0.0192 -0.1743 -0.3176
 9075SOL    HW128666   5.389   6.281   3.603 -0.8292 -0.6148 -1.0363
 9075SOL    HW228667   5.376   6.259   3.752  0.6765  0.4925 -0.7213
 9076SOL     OW28668   7.380   1.971   1.454 -1.0865  0.7722  0.1198
 9076SOL    HW128669   7.476   1.975   1.455 -0.8768 -1.6571  2.7393
 9076SOL    HW228670   7.360   1.891   1.405 -1.6753  0.4650  0.8426
 9077SOL     OW28671   4.599   6.667   1.475 -0.0650  0.1370  0.2143
 9077SOL    HW128672   4.536   6.699   1.541 -0.4925 -0.5992  0.1732
 9077SOL    HW228673   4.548   6.608   1.420  0.4331  0.3035 -0.4336
 9078SOL     OW28674   2.417   4.042   3.126 -0.0187  0.3121 -0.3681
 9078SOL    HW128675   2.479   4.116   3.126 -0.5925  0.8267 -1.6542
 9078SOL    HW228676   2.333   4.081   3.103 -0.5685 -0.5845  0.0621
 9079SOL     OW28677   4.306   0.973   1.511  0.0622  0.1317  0.0861
 9079SOL    HW128678   4.364   1.006   1.580  2.0920  1.3009 -2.0232
 9079SOL    HW228679   4.242   1.044   1.497  0.7372  0.6656 -0.3792
 9080SOL     OW28680   7.228   5.607   2.377  0.2143 -0.2883  0.0403
 9080SOL    HW128681   7.223   5.702   2.381 -1.4872 -0.1442 -2.7244
 9080SOL    HW228682   7.139   5.579   2.356  0.7793 -2.4575  0.2851
 9081SOL     OW28683   6.529   3.448   4.124  0.1192 -0.6831  0.4028
 9081SOL    HW128684   6.503   3.358   4.104 -0.3237 -0.9885  2.2354
 9081SOL    HW228685   6.592   3.439   4.195 -0.2830  0.4852  0.9247
 9082SOL     OW28686   4.508   1.778  10.653 -0.2050  0.1149 -0.0747
 9082SOL    HW128687   4.423   1.820  10.643 -0.4011 -0.5366 -1.2412
 9082SOL    HW228688   4.492   1.702  10.709 -0.3420  0.1104 -0.1221
 9083SOL     OW28689   4.098   4.611   4.273 -0.0775 -0.4776 -0.0519
 9083SOL    HW128690   4.074   4.696   4.236  0.1526  0.1627  1.2352
 9083SOL    HW228691   4.184   4.592   4.237 -0.6069 -0.7296 -1.2449
 9084SOL     OW28692   5.218   6.586   7.467 -0.2103  0.3532 -0.1243
 9084SOL    HW128693   5.235   6.585   7.373 -0.4434  1.1797 -0.1874
 9084SOL    HW228694   5.234   6.496   7.496  4.4719  0.9811 -0.0994
 9085SOL     OW28695   3.338   4.439   7.776  0.0716 -0.0018  0.1771
 9085SOL    HW128696   3.356   4.424   7.683 -1.0988 -0.6561  0.0343
 9085SOL    HW228697   3.362   4.531   7.791  0.9049 -0.0850 -0.6045
 9086SOL     OW28698   3.989   7.270  12.260  0.7095  0.3649  0.2635
 9086SOL    HW128699   3.950   7.296  12.343 -0.5361 -0.1023 -0.1413
 9086SOL    HW228700   4.059   7.333  12.244  0.6266  0.7579  1.4111
 9087SOL     OW28701   5.285   5.354   3.307  1.3330  0.1484  0.7698
 9087SOL    HW128702   5.366   5.309   3.333  0.9067 -0.4597  1.0577
 9087SOL    HW228703   5.261   5.405   3.384  0.9139 -0.4452  1.0443
 9088SOL     OW28704   2.839   5.969   2.740  0.0131  0.3279 -0.1000
 9088SOL    HW128705   2.762   5.933   2.784 -1.4754  1.0652 -1.9373
 9088SOL    HW228706   2.807   5.992   2.653  1.9902  1.9266 -0.4700
 9089SOL     OW28707   5.245   4.554   8.633 -0.1344 -0.1203 -0.0365
 9089SOL    HW128708   5.174   4.525   8.576 -1.1877  1.4718  0.3775
 9089SOL    HW228709   5.260   4.481   8.693  0.6879 -1.6577 -1.9917
 9090SOL     OW28710   1.222   7.264   4.203  0.4023 -0.0646 -0.3022
 9090SOL    HW128711   1.226   7.190   4.264  0.3093  0.6971  0.6522
 9090SOL    HW228712   1.131   7.266   4.173  0.5184 -0.6216 -0.6877
 9091SOL     OW28713   4.412   2.731   6.846  0.2356  0.0507  0.0978
 9091SOL    HW128714   4.396   2.652   6.794  2.8453 -0.6053  0.1865
 9091SOL    HW228715   4.481   2.777   6.799 -0.2400  1.5664  0.8276
 9092SOL     OW28716   2.938   1.084  11.310  0.8122 -0.5148  0.0161
 9092SOL    HW128717   2.871   1.045  11.254  0.3492 -0.7940  0.7528
 9092SOL    HW228718   2.909   1.174  11.322  2.4233  0.4824 -2.5544
 9093SOL     OW28719   3.817   1.450  10.723 -0.1257  0.0032 -0.0603
 9093SOL    HW128720   3.892   1.488  10.677 -1.5097  3.2649  0.1030
 9093SOL    HW228721   3.748   1.446  10.656 -0.9224  0.7808  0.6927
 9094SOL     OW28722   5.055   5.202   4.972 -0.2959 -0.4650 -0.1160
 9094SOL    HW128723   5.024   5.143   5.040 -0.2705  0.7245  0.9848
 9094SOL    HW228724   4.995   5.190   4.899 -2.2362  0.3948  1.2607
 9095SOL     OW28725   2.574   0.490   4.777 -0.0001 -0.0379  0.0037
 9095SOL    HW128726   2.643   0.434   4.742  0.9088  0.4456  0.9536
 9095SOL    HW228727   2.567   0.562   4.713  0.8817  0.2783  0.2490
 9096SOL     OW28728   1.510   5.596   2.850  0.0315  0.2085 -0.2763
 9096SOL    HW128729   1.435   5.621   2.796  0.1101  1.0899  0.0104
 9096SOL    HW228730   1.481   5.612   2.940  1.1852  2.4347 -0.2228
 9097SOL     OW28731   1.771   1.380   3.364  0.1733  0.2029  0.0076
 9097SOL    HW128732   1.703   1.317   3.338 -0.0724 -0.0009  1.0903
 9097SOL    HW228733   1.822   1.395   3.284  0.8922 -2.1708 -0.0417
 9098SOL     OW28734   4.908   3.068   0.602 -0.0131  0.3253 -0.2783
 9098SOL    HW128735   4.957   2.986   0.590  3.3582  2.0659  0.1669
 9098SOL    HW228736   4.880   3.092   0.514 -0.6491 -1.0614 -0.4741
 9099SOL     OW28737   6.640   5.568   8.596  0.5837 -0.1861 -0.2416
 9099SOL    HW128738   6.594   5.617   8.528  0.9207  1.1737  0.4850
 9099SOL    HW228739   6.673   5.490   8.550 -0.3005  0.0443 -1.3230
 9100SOL     OW28740   5.308   6.786   3.602 -0.2826 -0.2174  0.4380
 9100SOL    HW128741   5.249   6.717   3.631 -0.6307  0.0805  0.4575
 9100SOL    HW228742   5.296   6.789   3.507  1.1590 -1.4667  0.1943
 9101SOL     OW28743   2.980   5.509   7.014 -0.3785  0.1766 -0.2609
 9101SOL    HW128744   3.036   5.496   6.937  0.7979  0.5952  0.4988
 9101SOL    HW228745   3.041   5.517   7.087 -1.4318  0.8380  0.5765
 9102SOL     OW28746   3.125   6.714  10.631 -0.3965 -0.4870  0.0861
 9102SOL    HW128747   3.066   6.754  10.694  0.5688  1.3614 -0.1279
 9102SOL    HW228748   3.213   6.738  10.661  0.2356 -2.3536 -0.1465
 9103SOL     OW28749   6.793   2.984  12.264 -0.0845 -0.4451  0.5560
 9103SOL    HW128750   6.791   3.013  12.355 -1.1092 -1.0372  0.7477
 9103SOL    HW228751   6.857   2.913  12.263 -0.6515 -0.9760  1.0019
 9104SOL     OW28752   7.145   3.772   8.219  0.2684  0.1444 -0.2318
 9104SOL    HW128753   7.093   3.760   8.298 -1.4020  1.7031 -0.9938
 9104SOL    HW228754   7.169   3.683   8.192  1.3128 -0.3902  2.2338
 9105SOL     OW28755   4.754   4.797  10.279 -0.1630  0.2475  0.0060
 9105SOL    HW128756   4.844   4.819  10.303  0.7022 -0.8302 -2.0024
 9105SOL    HW228757   4.750   4.813  10.185 -2.4957  1.5287  0.2774
 9106SOL     OW28758   3.828   2.099  12.248 -0.2065  0.0647  0.1519
 9106SOL    HW128759   3.794   2.169  12.304 -1.4899 -0.8941  0.6186
 9106SOL    HW228760   3.898   2.141  12.197 -0.6721  1.5787  0.6969
 9107SOL     OW28761   3.035   0.711   2.984 -0.1911 -0.1043 -0.0438
 9107SOL    HW128762   2.944   0.705   2.955  0.2560 -2.0288 -1.1612
 9107SOL    HW228763   3.032   0.684   3.076 -0.8464  0.6403  0.1633
 9108SOL     OW28764   6.773   7.481  10.449 -0.6160 -0.2537 -0.0806
 9108SOL    HW128765   6.728   7.515  10.526 -3.3783  1.7077 -2.3589
 9108SOL    HW228766   6.856   7.529  10.446 -0.6753 -0.0243  1.3917
 9109SOL     OW28767   7.479   4.506   5.557  0.3460 -0.0255  0.5043
 9109SOL    HW128768   7.414   4.510   5.487  0.0529 -0.3522  0.7555
 9109SOL    HW228769   7.510   4.597   5.565  1.6888 -0.2780 -1.2415
 9110SOL     OW28770   7.241   1.404   4.171 -0.1701 -0.3630  0.2382
 9110SOL    HW128771   7.270   1.455   4.096  1.7842  0.3428  1.3933
 9110SOL    HW228772   7.261   1.313   4.148  0.2231 -0.1756 -0.1758
 9111SOL     OW28773   1.447   3.950   1.841 -0.7475 -0.3380  0.1093
 9111SOL    HW128774   1.405   3.904   1.914 -1.7073  1.0553  0.4712
 9111SOL    HW228775   1.495   3.881   1.795 -1.4963 -1.5632  1.0690
 9112SOL     OW28776   6.718   3.773   9.996  0.5520  0.0828 -0.1971
 9112SOL    HW128777   6.807   3.788  10.028  1.1251 -1.0384 -1.2117
 9112SOL    HW228778   6.713   3.824   9.915  0.2288  0.2233 -0.0904
 9113SOL     OW28779   5.814   7.899   2.628 -0.0795  0.1435  0.0665
 9113SOL    HW128780   5.900   7.857   2.634  0.6339  1.4865 -0.2397
 9113SOL    HW228781   5.830   7.977   2.574 -1.7392 -0.1771 -0.9213
 9114SOL     OW28782   6.723   0.472   3.741  0.1142  0.1179  0.0056
 9114SOL    HW128783   6.700   0.459   3.833  0.4218  0.0481  0.0727
 9114SOL    HW228784   6.801   0.418   3.728 -0.7891 -1.0927 -0.6801
 9115SOL     OW28785   1.735   6.745   9.768 -0.3014 -0.2305  0.0696
 9115SOL    HW128786   1.659   6.792   9.734 -0.3403 -1.6791 -2.0370
 9115SOL    HW228787   1.701   6.658   9.791  0.5847 -0.7006 -0.3451
 9116SOL     OW28788   1.184   5.748   4.822 -0.0913  0.1741 -0.1796
 9116SOL    HW128789   1.123   5.675   4.817  2.9177 -2.8854  2.8129
 9116SOL    HW228790   1.132   5.820   4.859 -2.5057 -1.3373 -0.4178
 9117SOL     OW28791   3.368   6.938   0.416 -0.6559 -0.3284  0.2737
 9117SOL    HW128792   3.366   6.913   0.323 -0.5466  0.2317  0.1143
 9117SOL    HW228793   3.367   7.034   0.414 -0.4476 -0.3141  0.8500
 9118SOL     OW28794   2.637   7.584   5.539  0.0258  0.2075 -0.4668
 9118SOL    HW128795   2.647   7.607   5.631 -0.0966 -0.4652 -0.2819
 9118SOL    HW228796   2.708   7.523   5.521 -0.7995 -0.7970 -0.4230
 9119SOL     OW28797   1.910   2.865   9.609  0.2756 -0.0810 -0.3037
 9119SOL    HW128798   2.003   2.856   9.589  0.5202 -1.0594  1.1840
 9119SOL    HW228799   1.907   2.923   9.685 -0.3156 -0.2496 -0.1916
 9120SOL     OW28800   7.078   0.569   8.777  0.2360  0.0820  0.1409
 9120SOL    HW128801   7.044   0.546   8.690  0.9895  2.0249 -0.7215
 9120SOL    HW228802   7.170   0.592   8.761 -0.0865  2.2198  1.1075
 9121SOL     OW28803   7.516   2.418   7.284  0.1109  0.3466  0.1293
 9121SOL    HW128804   7.490   2.340   7.235  0.9869  0.1600 -0.0426
 9121SOL    HW228805   7.577   2.386   7.351 -0.8846  0.6315  1.2170
 9122SOL     OW28806   6.734   4.944   6.441  0.1512  0.4214 -0.1020
 9122SOL    HW128807   6.674   4.884   6.486  0.9156  0.7892  1.4972
 9122SOL    HW228808   6.742   5.018   6.500  2.5733  0.1573  0.0254
 9123SOL     OW28809   3.198   6.056   4.455  0.2429 -0.3609 -0.0658
 9123SOL    HW128810   3.205   6.131   4.396  0.7123  0.4464  0.9940
 9123SOL    HW228811   3.286   6.046   4.492  0.7124 -2.5801 -1.5110
 9124SOL     OW28812   2.445   1.344   7.839 -0.1941  0.2869  0.3250
 9124SOL    HW128813   2.405   1.397   7.908 -0.5129 -0.8954  1.0820
 9124SOL    HW228814   2.459   1.259   7.880  2.7563  0.5134 -0.0168
 9125SOL     OW28815   7.818   1.588   9.273  0.2258  0.0030  0.3686
 9125SOL    HW128816   7.744   1.637   9.309 -0.7581  1.0280 -2.7431
 9125SOL    HW228817   7.865   1.651   9.219  3.4079 -0.6665  2.1228
 9126SOL     OW28818   5.667   1.541   3.054 -0.3879  0.3048 -0.0559
 9126SOL    HW128819   5.657   1.573   3.144  0.5860  0.0668  0.1555
 9126SOL    HW228820   5.750   1.581   3.024 -0.3957 -0.0982 -0.6343
 9127SOL     OW28821   3.475   1.279   7.977 -0.1274 -0.0100 -0.4337
 9127SOL    HW128822   3.570   1.273   7.980 -0.0728  0.3767 -1.2776
 9127SOL    HW228823   3.448   1.284   8.069  0.6324 -0.5426 -0.1739
 9128SOL     OW28824   6.975   0.171  11.699 -0.1403 -0.0613  0.5386
 9128SOL    HW128825   7.035   0.228  11.651 -0.2815 -0.7846 -0.5508
 9128SOL    HW228826   7.013   0.163  11.786  1.2376 -0.3033 -0.0565
 9129SOL     OW28827   6.460   0.638   7.294  0.2704 -0.6008 -0.4429
 9129SOL    HW128828   6.446   0.552   7.256  0.0394 -0.3537 -0.9307
 9129SOL    HW228829   6.390   0.692   7.258 -1.6852 -0.9909  2.4627
 9130SOL     OW28830   3.306   3.782   8.775 -0.0063  0.4513 -0.4933
 9130SOL    HW128831   3.247   3.795   8.701  1.1617  0.4630 -1.4710
 9130SOL    HW228832   3.359   3.862   8.778 -0.6749  0.8702  0.9930
 9131SOL     OW28833   7.054   4.616  10.962 -0.4912  0.1161  0.5635
 9131SOL    HW128834   7.034   4.556  11.034 -0.5954  0.7725  1.0989
 9131SOL    HW228835   7.141   4.650  10.984 -0.7932  0.8011  0.7262
 9132SOL     OW28836   5.187   0.495   5.203 -0.1049  0.5127 -0.2173
 9132SOL    HW128837   5.134   0.558   5.154 -0.0051 -0.1131 -1.1660
 9132SOL    HW228838   5.156   0.409   5.173  1.5834  0.1322 -0.9727
 9133SOL     OW28839   3.111   3.583   9.657 -0.0124 -0.6177  0.4933
 9133SOL    HW128840   3.117   3.522   9.731 -0.3245  0.2276  1.2234
 9133SOL    HW228841   3.185   3.642   9.669 -0.3435 -0.1844  0.3874
 9134SOL     OW28842   1.108   3.886   5.813 -0.1866  0.4953 -0.2536
 9134SOL    HW128843   1.088   3.889   5.720  4.5278  1.1453 -1.5105
 9134SOL    HW228844   1.104   3.793   5.836 -2.0419  0.3943 -0.8442
 9135SOL     OW28845   4.980   4.767   4.641 -0.5920  0.0963 -0.1490
 9135SOL    HW128846   5.019   4.826   4.576  0.7938  0.2276  0.7637
 9135SOL    HW228847   5.035   4.688   4.637 -0.7151 -0.0298  0.6008
 9136SOL     OW28848   5.804   0.335   3.226  0.1761 -0.1260 -0.3270
 9136SOL    HW128849   5.841   0.326   3.138 -3.0901  1.3384 -1.9969
 9136SOL    HW228850   5.734   0.270   3.229 -0.8878  1.0428  0.5164
 9137SOL     OW28851   4.424   0.228   8.117  0.4152 -0.4244  0.0172
 9137SOL    HW128852   4.424   0.135   8.092  0.9094 -0.2358 -0.7375
 9137SOL    HW228853   4.337   0.260   8.092 -0.2064 -0.9506  1.3992
 9138SOL     OW28854   1.964   4.880   6.049 -0.1283 -0.1338 -0.4657
 9138SOL    HW128855   2.010   4.888   6.132  0.2264 -2.4037 -0.3816
 9138SOL    HW228856   1.905   4.805   6.061 -2.0041  1.1200 -1.4115
 9139SOL     OW28857   5.097   3.546   1.392  0.4605 -0.6967 -0.0758
 9139SOL    HW128858   5.047   3.617   1.432  1.8065 -0.1722  0.7536
 9139SOL    HW228859   5.061   3.466   1.429  0.9160 -0.2717  1.3585
 9140SOL     OW28860   4.960   1.668   4.316 -0.2066 -0.5061  0.1867
 9140SOL    HW128861   5.028   1.718   4.270  0.3520  0.4635  1.9712
 9140SOL    HW228862   4.883   1.726   4.316 -1.1809 -1.6680 -1.9832
 9141SOL     OW28863   5.029   1.743   9.144 -0.1662  0.8335  0.1357
 9141SOL    HW128864   5.006   1.682   9.074  0.2090  0.3994  0.3864
 9141SOL    HW228865   5.063   1.688   9.214  0.6571  1.3633  0.1660
 9142SOL     OW28866   0.777   4.072   9.978  0.1491  0.0205 -0.4741
 9142SOL    HW128867   0.774   3.981  10.007 -2.4394  0.2031  0.0838
 9142SOL    HW228868   0.842   4.113  10.035 -0.4184 -0.9753  0.9531
 9143SOL     OW28869   4.344   7.713   4.949  0.1123 -0.4491  0.8037
 9143SOL    HW128870   4.374   7.696   5.038  0.3063 -0.7693  0.6785
 9143SOL    HW228871   4.338   7.627   4.908 -1.4843 -0.4411  0.9702
 9144SOL     OW28872   1.524   6.055   8.630 -0.0354  0.3772  0.4508
 9144SOL    HW128873   1.466   5.994   8.585  0.3998 -0.5287  1.1045
 9144SOL    HW228874   1.470   6.090   8.702  0.6324 -1.5681  1.9672
 9145SOL     OW28875   7.565   5.585  10.222 -0.0006  0.5775  0.5323
 9145SOL    HW128876   7.623   5.526  10.174 -1.1454  0.9075 -1.3241
 9145SOL    HW228877   7.624   5.638  10.276  1.1053 -1.6978  1.6762
 9146SOL     OW28878   4.732   0.564  11.247 -0.1823  0.2232 -0.3812
 9146SOL    HW128879   4.699   0.608  11.169  1.7054  1.1743 -0.6782
 9146SOL    HW228880   4.820   0.598  11.260  0.2752 -1.3339  1.0790
 9147SOL     OW28881   5.227   1.324   8.036  0.2350  0.0147 -0.7062
 9147SOL    HW128882   5.221   1.381   8.113  0.7581  1.0816 -1.4464
 9147SOL    HW228883   5.192   1.240   8.067 -0.4383  0.6867  0.4282
 9148SOL     OW28884   1.648   1.352   8.844  0.1108 -0.4289  0.1441
 9148SOL    HW128885   1.664   1.389   8.931  0.7645  0.7334 -0.4332
 9148SOL    HW228886   1.695   1.411   8.785  1.9613 -2.6823 -0.7974
 9149SOL     OW28887   0.035   6.961   4.653 -0.3705 -0.1517  0.1930
 9149SOL    HW128888   0.126   6.935   4.640  0.3252  1.5076  1.4463
 9149SOL    HW228889   0.027   6.975   4.747 -2.1963 -1.1203  0.2219
 9150SOL     OW28890   7.178   3.993   8.647  0.3461 -0.1871  0.3360
 9150SOL    HW128891   7.233   4.064   8.613 -2.2666  0.2676 -3.5683
 9150SOL    HW228892   7.227   3.913   8.627  0.9020  0.3010 -0.2916
 9151SOL     OW28893   2.804   5.573  12.351 -0.4450 -0.1082 -0.0602
 9151SOL    HW128894   2.869   5.513  12.388  0.6979  1.7260  1.0518
 9151SOL    HW228895   2.847   5.609  12.273 -0.5253  0.3544  0.1065
 9152SOL     OW28896   7.832   7.511  10.803  0.3654 -0.3728  0.1350
 9152SOL    HW128897   7.767   7.456  10.758 -0.4563  0.8956 -0.2626
 9152SOL    HW228898   7.823   7.488  10.895 -0.9740  0.1021  0.1346
 9153SOL     OW28899   3.339   5.892   8.018  0.6037  0.0170  0.2146
 9153SOL    HW128900   3.419   5.844   8.037  0.9141 -0.9417 -2.9482
 9153SOL    HW228901   3.369   5.978   7.990  0.3152  0.5350  1.4205
 9154SOL     OW28902   5.083   1.330   5.857 -0.1666 -0.0484  0.9198
 9154SOL    HW128903   5.165   1.293   5.826  0.2615  1.2133  0.4769
 9154SOL    HW228904   5.065   1.284   5.939  0.9906 -0.3176  1.0300
 9155SOL     OW28905   1.340   3.936   0.597 -0.3069 -0.1120 -0.6952
 9155SOL    HW128906   1.309   3.851   0.628 -0.5188  1.0936  2.8888
 9155SOL    HW228907   1.282   4.000   0.639  2.7404  1.9654  0.7399
 9156SOL     OW28908   0.397   6.360   7.181 -0.3819  0.5098  0.0547
 9156SOL    HW128909   0.359   6.351   7.094 -0.3176 -2.7542  0.2573
 9156SOL    HW228910   0.323   6.350   7.241 -0.2314  1.4034  0.4022
 9157SOL     OW28911   7.628   4.755  10.461 -0.2040 -0.0796  0.3914
 9157SOL    HW128912   7.549   4.804  10.438  0.0701  0.1404 -0.0905
 9157SOL    HW228913   7.627   4.680  10.402  1.7144  1.6752 -2.0768
 9158SOL     OW28914   7.379   1.627  12.136 -0.3181  0.1617 -0.3498
 9158SOL    HW128915   7.433   1.580  12.199 -0.9515  0.5030  0.4577
 9158SOL    HW228916   7.313   1.671  12.189  1.6447  3.9746 -0.7750
 9159SOL     OW28917   6.982   7.765   5.956  0.1594  0.1108 -1.1096
 9159SOL    HW128918   6.975   7.675   5.987 -0.6917  1.2065  2.2739
 9159SOL    HW228919   6.957   7.819   6.031  1.2022  3.2214 -2.8018
 9160SOL     OW28920   6.485   5.602   6.214 -0.1606  0.3312 -0.8191
 9160SOL    HW128921   6.495   5.690   6.177 -0.2841  0.9209  0.4595
 9160SOL    HW228922   6.397   5.603   6.253  0.0302 -0.1763 -0.3605
 9161SOL     OW28923   2.700   3.296   0.727 -0.3416  0.1386 -0.1943
 9161SOL    HW128924   2.619   3.250   0.749  0.9430 -1.6759  1.0729
 9161SOL    HW228925   2.730   3.332   0.810  0.4450  0.3003 -0.5379
 9162SOL     OW28926   2.439   4.889   7.612  0.0518  0.7996 -0.3235
 9162SOL    HW128927   2.384   4.831   7.664 -1.3638  1.9076 -0.5263
 9162SOL    HW228928   2.528   4.858   7.628 -0.5587 -0.6091  0.5635
 9163SOL     OW28929   2.798   1.622   8.823  0.5735 -0.6536  0.4013
 9163SOL    HW128930   2.828   1.682   8.755 -0.7342  0.0382  0.4037
 9163SOL    HW228931   2.703   1.619   8.813  0.2429  0.0962  2.7027
 9164SOL     OW28932   4.108   4.960   4.441  0.4401  0.4774  0.2327
 9164SOL    HW128933   4.084   5.012   4.364 -0.5093  1.0637  0.8949
 9164SOL    HW228934   4.170   5.015   4.489  3.1582 -0.9582 -1.3758
 9165SOL     OW28935   2.647   3.501   1.502  0.1325 -0.5512 -0.3208
 9165SOL    HW128936   2.683   3.447   1.572  0.3991 -0.1926 -0.1791
 9165SOL    HW228937   2.595   3.441   1.449 -1.3128 -0.5612  1.0415
 9166SOL     OW28938   6.327   0.537   1.708  0.2937 -0.0404 -0.2302
 9166SOL    HW128939   6.328   0.490   1.625  0.4058 -1.0910  0.3485
 9166SOL    HW228940   6.240   0.577   1.711 -0.4615 -1.6137  0.0048
 9167SOL     OW28941   0.647   0.192   7.726  0.1892 -0.0665  0.3057
 9167SOL    HW128942   0.646   0.126   7.795 -0.3818  0.2001  0.5605
 9167SOL    HW228943   0.557   0.224   7.722  0.6101  1.2360  0.7097
 9168SOL     OW28944   5.374   7.789   9.294 -0.2520 -0.0161  0.0483
 9168SOL    HW128945   5.347   7.779   9.385  0.1850 -1.3888  0.0522
 9168SOL    HW228946   5.435   7.717   9.279  0.1770  0.5725 -1.1489
 9169SOL     OW28947   4.995   6.464   7.046  0.0489  0.0222 -0.0639
 9169SOL    HW128948   5.069   6.452   7.106  0.3715  3.1683  0.3021
 9169SOL    HW228949   4.919   6.476   7.102 -0.2711 -0.3797 -0.3986
 9170SOL     OW28950   7.529   7.026   0.024 -0.2158  0.0819  0.5131
 9170SOL    HW128951   7.578   7.023  -0.058 -0.9689  1.1070  0.0001
 9170SOL    HW228952   7.595   7.041   0.091  0.3660 -0.3704  0.0502
 9171SOL     OW28953   1.440   0.966   4.683 -0.5466  0.0898  0.0964
 9171SOL    HW128954   1.445   0.879   4.723  0.9288 -0.1110 -0.4414
 9171SOL    HW228955   1.493   0.958   4.603 -0.0975  1.5620  0.2149
 9172SOL     OW28956   2.271   6.564   1.581  0.1789 -0.5859 -0.3328
 9172SOL    HW128957   2.314   6.638   1.623 -0.4402 -0.0938 -0.5594
 9172SOL    HW228958   2.177   6.584   1.586  0.0003 -1.3826 -0.3319
 9173SOL     OW28959   6.069   1.548   8.104  0.3503 -0.1190 -0.4400
 9173SOL    HW128960   6.009   1.593   8.043  0.6516 -1.0439 -1.4366
 9173SOL    HW228961   6.156   1.569   8.071  0.5402 -0.0857  0.0789
 9174SOL     OW28962   5.613   6.936   6.591 -0.0227 -0.3097  0.0335
 9174SOL    HW128963   5.706   6.917   6.603  0.2295  1.0056  0.3339
 9174SOL    HW228964   5.579   6.944   6.680 -0.0321  0.9343 -0.0690
 9175SOL     OW28965   0.164   2.628   5.600 -0.3249 -0.2417 -0.1082
 9175SOL    HW128966   0.109   2.665   5.530 -2.8119  0.5142  2.0922
 9175SOL    HW228967   0.240   2.687   5.603 -1.0151  0.7480 -1.0034
 9176SOL     OW28968   6.693   6.082   5.653 -0.1303 -0.5420  0.3576
 9176SOL    HW128969   6.697   6.015   5.585 -1.1486  0.2223 -0.4850
 9176SOL    HW228970   6.764   6.142   5.632 -1.9350  1.0714 -1.5962
 9177SOL     OW28971   0.148   0.370   9.286 -0.2348  0.1321 -0.0379
 9177SOL    HW128972   0.102   0.334   9.210  0.9811 -0.8714 -0.3253
 9177SOL    HW228973   0.108   0.456   9.299 -1.6758 -0.3950 -0.7135
 9178SOL     OW28974   3.184   5.499  11.203 -0.1892 -0.5688  0.3296
 9178SOL    HW128975   3.158   5.551  11.127 -2.1121 -0.6850  0.8541
 9178SOL    HW228976   3.158   5.552  11.279  2.7964  0.1203  1.0362
 9179SOL     OW28977   7.523   4.351   1.036 -0.1233  0.4082  0.1703
 9179SOL    HW128978   7.533   4.422   1.099 -0.5705  0.4068  0.2497
 9179SOL    HW228979   7.486   4.393   0.958  1.3742  0.5974 -0.4796
 9180SOL     OW28980   6.293   2.489   1.516  0.1906 -0.0956 -0.1512
 9180SOL    HW128981   6.239   2.465   1.591  0.6480  2.2961  1.0590
 9180SOL    HW228982   6.232   2.490   1.442 -0.7375 -0.4209  0.5831
 9181SOL     OW28983   5.171   7.469   6.265 -0.4131 -0.3689  0.1515
 9181SOL    HW128984   5.198   7.401   6.326  0.4239 -0.0900  0.1040
 9181SOL    HW228985   5.120   7.530   6.319 -0.7615 -0.7780  0.2922
 9182SOL     OW28986   4.641   3.417  11.975 -0.7827 -0.1742  0.0134
 9182SOL    HW128987   4.631   3.396  12.067  2.6564 -0.6615  0.3912
 9182SOL    HW228988   4.629   3.334  11.929 -4.7898  0.4114 -0.3950
 9183SOL     OW28989   1.135   6.946   0.736  0.1723  0.5726 -0.2735
 9183SOL    HW128990   1.095   7.012   0.681  0.5695  1.1538  0.1221
 9183SOL    HW228991   1.185   6.995   0.801  2.3996 -0.0897 -1.3689
 9184SOL     OW28992   7.228   6.246   1.188  0.4055 -0.0790 -0.3529
 9184SOL    HW128993   7.212   6.155   1.164  1.2825  0.2536 -2.3658
 9184SOL    HW228994   7.174   6.297   1.128  0.5224  0.7576  0.2260
 9185SOL     OW28995   1.329   5.197   3.891  0.1127  0.0735 -0.6373
 9185SOL    HW128996   1.346   5.280   3.846  0.8011 -0.0805 -0.6754
 9185SOL    HW228997   1.361   5.210   3.980  1.5588 -0.5979 -1.0236
 9186SOL     OW28998   2.524   7.701   5.051  0.0785  0.0935 -0.2185
 9186SOL    HW128999   2.429   7.705   5.063 -0.2570 -1.5794 -1.8513
 9186SOL    HW229000   2.541   7.610   5.029  1.8715  0.6833 -1.4860
 9187SOL     OW29001   5.538   0.783   6.132  0.0238  0.2469  0.0624
 9187SOL    HW129002   5.460   0.774   6.077  1.2023 -0.0582 -1.6654
 9187SOL    HW229003   5.530   0.869   6.173 -2.6182 -0.9354  2.3358
 9188SOL     OW29004   4.784   6.272   4.828  0.1346  0.1873  0.0319
 9188SOL    HW129005   4.777   6.184   4.790  0.3836 -0.4378  1.3964
 9188SOL    HW229006   4.844   6.318   4.769  0.1758 -0.6199 -0.5793
 9189SOL     OW29007   6.598   3.345   5.018  0.4255  0.1021 -0.0928
 9189SOL    HW129008   6.577   3.426   4.971 -0.6248 -0.6301 -0.9418
 9189SOL    HW229009   6.516   3.320   5.061  0.7855 -0.4224  0.2975
 9190SOL     OW29010   3.277   2.304   2.808 -0.0078 -0.0681 -0.5958
 9190SOL    HW129011   3.371   2.292   2.818  0.0054  0.4523 -0.0521
 9190SOL    HW229012   3.257   2.267   2.722  0.7744  0.3051 -0.9493
 9191SOL     OW29013   7.266   0.333  12.080  0.2495 -0.1135 -0.0748
 9191SOL    HW129014   7.202   0.272  12.043 -0.3780 -0.0155  0.8236
 9191SOL    HW229015   7.230   0.357  12.166  0.5604  1.3870 -0.3265
 9192SOL     OW29016   6.854   5.197   1.721 -0.0761  0.0511 -0.0495
 9192SOL    HW129017   6.766   5.175   1.753 -0.3224 -0.5541 -1.1056
 9192SOL    HW229018   6.864   5.145   1.641  1.8150 -1.0640  0.8423
 9193SOL     OW29019   1.479   5.448   7.893  0.0814  0.0171  0.2822
 9193SOL    HW129020   1.437   5.364   7.872 -1.1709  0.9989 -1.3092
 9193SOL    HW229021   1.570   5.424   7.911 -0.2574 -1.7014 -0.0738
 9194SOL     OW29022   0.412   4.647  10.957  0.0240  0.0484 -0.5028
 9194SOL    HW129023   0.434   4.612  11.043  1.0332 -0.0623 -0.7930
 9194SOL    HW229024   0.490   4.697  10.931 -0.7133  1.0582 -0.8520
 9195SOL     OW29025   0.753   0.541   4.173  0.2270  0.2540 -0.0601
 9195SOL    HW129026   0.706   0.514   4.094 -0.4997 -0.4837  0.5950
 9195SOL    HW229027   0.833   0.488   4.173  0.3138  0.3842 -0.3897
 9196SOL     OW29028   5.132   0.301   7.529  0.1966 -0.0182 -0.2614
 9196SOL    HW129029   5.040   0.324   7.518  0.2544 -0.1755 -1.1573
 9196SOL    HW229030   5.177   0.385   7.538 -0.1821  0.0282  1.6339
 9197SOL     OW29031   5.003   2.910   6.934  0.1311  0.0743  0.4945
 9197SOL    HW129032   5.060   2.840   6.904  1.1545  1.3123 -0.5591
 9197SOL    HW229033   4.954   2.937   6.856  0.6761  1.3543  0.5687
 9198SOL     OW29034   5.765   5.303   7.150 -0.2700 -0.5409  0.3208
 9198SOL    HW129035   5.814   5.269   7.075  1.6435  1.0757  0.7453
 9198SOL    HW229036   5.788   5.245   7.222  1.7615  0.6499  0.6995
 9199SOL     OW29037   0.407   6.829  10.058 -0.4931 -0.7781 -0.3327
 9199SOL    HW129038   0.355   6.751  10.039 -1.0252 -0.5412  0.1264
 9199SOL    HW229039   0.446   6.811  10.144 -0.2317 -0.7352 -0.4401
 9200SOL     OW29040   0.576   1.000   1.493  0.5682 -0.2135  0.0774
 9200SOL    HW129041   0.533   1.078   1.459  0.6108 -0.1852  0.0887
 9200SOL    HW229042   0.536   0.928   1.444  1.9887 -0.0361 -1.4524
 9201SOL     OW29043   4.178   6.697   0.011  0.1912  0.1511 -0.0872
 9201SOL    HW129044   4.147   6.787   0.020 -0.6344 -0.1544  0.2613
 9201SOL    HW229045   4.098   6.644   0.014  0.7479 -0.6737  0.8657
 9202SOL     OW29046   6.839   5.135   9.496 -0.0363 -0.4393  0.6799
 9202SOL    HW129047   6.825   5.187   9.417  0.3422  1.1786  1.6247
 9202SOL    HW229048   6.923   5.093   9.482  0.0659 -0.0997  0.2481
 9203SOL     OW29049   3.130   7.173  12.024  0.3755  0.2677 -0.1673
 9203SOL    HW129050   3.178   7.113  12.081 -1.4680 -0.7828  0.3764
 9203SOL    HW229051   3.079   7.116  11.967 -0.1491  1.3251 -0.7823
 9204SOL     OW29052   6.484   3.789   4.607 -0.3055  0.5010  0.2771
 9204SOL    HW129053   6.481   3.875   4.650 -0.7756  1.3008 -1.2755
 9204SOL    HW229054   6.395   3.755   4.616 -0.6686  1.0920 -0.8110
 9205SOL     OW29055   1.074   7.577   2.988  0.1001  0.1236 -0.6301
 9205SOL    HW129056   1.022   7.636   3.044  0.8520 -0.2454  0.4929
 9205SOL    HW229057   1.028   7.493   2.995  0.9558 -0.2759  0.5926
 9206SOL     OW29058   2.219   1.581  10.029  0.4448 -0.5120  0.5187
 9206SOL    HW129059   2.176   1.663  10.007  0.1381 -0.5343  1.0177
 9206SOL    HW229060   2.301   1.583   9.980  0.5050  0.1577  0.6351
 9207SOL     OW29061   1.156   2.276   1.837 -0.4222 -0.6758 -0.4389
 9207SOL    HW129062   1.242   2.236   1.850 -0.0882  0.0947 -0.1757
 9207SOL    HW229063   1.142   2.272   1.742  0.4052  0.1587 -0.6176
 9208SOL     OW29064   7.007   7.514  10.760 -0.1445 -0.2020  0.2635
 9208SOL    HW129065   7.007   7.432  10.712 -1.8609 -1.0611  1.5945
 9208SOL    HW229066   6.973   7.578  10.697 -3.4924 -1.5262  0.5238
 9209SOL     OW29067   7.358   2.078   3.059 -0.9217 -0.4310  0.6526
 9209SOL    HW129068   7.268   2.111   3.067 -0.5192  0.6988  0.6534
 9209SOL    HW229069   7.347   1.984   3.046 -2.1628 -0.1798 -0.4232
 9210SOL     OW29070   6.308   7.399   6.530  0.0400  0.1634  0.1924
 9210SOL    HW129071   6.344   7.379   6.444 -0.6879  1.8121 -0.5463
 9210SOL    HW229072   6.386   7.410   6.586  0.4878 -2.2770  0.1344
 9211SOL     OW29073   4.008   4.702   3.099 -0.4986  0.0299 -0.2249
 9211SOL    HW129074   3.976   4.674   3.013  1.5540 -1.7749 -0.4527
 9211SOL    HW229075   4.029   4.795   3.087 -1.8212  0.2451 -1.1470
 9212SOL     OW29076   1.497   3.874   6.218 -0.4477 -0.5573  0.6479
 9212SOL    HW129077   1.415   3.825   6.217 -1.1844  0.6270 -0.8215
 9212SOL    HW229078   1.486   3.938   6.289 -0.5670 -0.7700  0.8199
 9213SOL     OW29079   6.984   2.594   9.428 -0.0085  0.2862 -0.0329
 9213SOL    HW129080   6.985   2.577   9.522 -1.4711  0.8380  0.1142
 9213SOL    HW229081   7.069   2.563   9.397  0.4663  0.0131  1.4486
 9214SOL     OW29082   3.534   0.664   6.746  0.0844 -0.0418 -0.3449
 9214SOL    HW129083   3.474   0.686   6.676 -0.1397  1.9320  0.4063
 9214SOL    HW229084   3.602   0.732   6.743  0.3235 -0.1748  1.0257
 9215SOL     OW29085   0.975   5.104  10.949  0.6050  0.2794  0.3125
 9215SOL    HW129086   1.058   5.066  10.978  0.3624  0.0273  0.7001
 9215SOL    HW229087   0.909   5.059  11.003  0.2717  0.9045  0.4328
 9216SOL     OW29088   3.008   5.288   8.117 -0.8550  0.5667  0.2339
 9216SOL    HW129089   3.060   5.310   8.195 -2.0110  2.4136  0.5530
 9216SOL    HW229090   2.988   5.373   8.077 -0.5034 -0.3195 -1.9709
 9217SOL     OW29091   2.868   5.505   2.890  0.4641  0.3756  0.0218
 9217SOL    HW129092   2.874   5.585   2.942  1.2237 -0.0099  0.5389
 9217SOL    HW229093   2.951   5.460   2.905  0.7717  0.3179 -1.6335
 9218SOL     OW29094   0.912   0.596   4.453 -0.4736  0.1050  0.0658
 9218SOL    HW129095   0.995   0.594   4.501 -0.4617  1.8929  0.1750
 9218SOL    HW229096   0.928   0.654   4.379 -1.3072 -0.4318 -0.5496
 9219SOL     OW29097   4.060   3.291   6.037 -0.1356  0.6942  0.6593
 9219SOL    HW129098   3.970   3.295   6.003  0.1955 -1.6625 -0.6930
 9219SOL    HW229099   4.050   3.264   6.128 -0.8067 -0.9908  0.1241
 9220SOL     OW29100   6.415   7.246   2.780  0.6656 -0.4214  0.4919
 9220SOL    HW129101   6.487   7.263   2.841  0.5160  2.6869 -0.0341
 9220SOL    HW229102   6.437   7.297   2.702 -0.2381 -2.5478 -1.2740
 9221SOL     OW29103   7.099   5.844   7.866 -0.1438  0.2666  0.3083
 9221SOL    HW129104   7.052   5.926   7.848 -1.4011 -0.7703 -1.4621
 9221SOL    HW229105   7.127   5.814   7.780  0.6713 -0.9541  0.9864
 9222SOL     OW29106   7.011   2.289   9.243  0.3473 -0.1240 -0.6740
 9222SOL    HW129107   6.931   2.247   9.213 -0.7803  2.6763 -1.9348
 9222SOL    HW229108   7.015   2.371   9.193  4.3228 -0.3893 -1.1255
 9223SOL     OW29109   4.609   1.817   7.212  0.2779 -0.1047  0.2899
 9223SOL    HW129110   4.530   1.853   7.251 -0.4226 -1.0288 -0.2392
 9223SOL    HW229111   4.647   1.762   7.280 -0.3947 -0.9095  0.0287
 9224SOL     OW29112   7.448   4.651   2.868  0.1529 -0.1255 -0.4092
 9224SOL    HW129113   7.429   4.560   2.889 -1.3811 -0.4187 -2.6320
 9224SOL    HW229114   7.367   4.698   2.889  0.4890  0.4888 -0.4582
 9225SOL     OW29115   5.891   5.621   9.927  0.1490  0.5753  0.0967
 9225SOL    HW129116   5.829   5.572   9.873  1.1055  0.7665 -1.2465
 9225SOL    HW229117   5.972   5.620   9.875  0.8211  1.6179  1.1025
 9226SOL     OW29118   0.756   3.749   4.042  0.1649 -0.3617  0.1540
 9226SOL    HW129119   0.667   3.780   4.061  0.8632  1.7866  0.1909
 9226SOL    HW229120   0.764   3.757   3.947  0.4178 -0.2315  0.1847
 9227SOL     OW29121   7.410   7.622   8.723  0.4060  0.2543  0.1238
 9227SOL    HW129122   7.446   7.557   8.783  2.1048  0.2012 -0.8807
 9227SOL    HW229123   7.433   7.589   8.636  2.7160  2.8857 -0.3917
 9228SOL     OW29124   3.883   3.660   8.556  0.0381 -0.7585  0.0091
 9228SOL    HW129125   3.792   3.684   8.571 -0.0035  1.6271 -3.0393
 9228SOL    HW229126   3.879   3.589   8.492  0.2894  0.4770 -1.4066
 9229SOL     OW29127   3.879   5.115  10.477  0.5818 -0.2141 -0.0522
 9229SOL    HW129128   3.840   5.202  10.471  0.7051 -0.0909  0.8537
 9229SOL    HW229129   3.898   5.091  10.386  0.2280  0.5506 -0.3366
 9230SOL     OW29130   6.885   4.109   3.621 -0.0184 -0.2749  0.4975
 9230SOL    HW129131   6.920   4.198   3.629  0.4109 -0.1499 -2.0450
 9230SOL    HW229132   6.952   4.054   3.663  0.7295  0.4208  0.2529
 9231SOL     OW29133   2.445   7.733  10.674 -0.2588 -0.5046  0.4917
 9231SOL    HW129134   2.397   7.719  10.592  1.2625 -1.6023 -0.2706
 9231SOL    HW229135   2.484   7.820  10.664  0.2884 -0.8170 -0.1562
 9232SOL     OW29136   6.155   7.039  10.032 -0.6173  0.0408  0.2967
 9232SOL    HW129137   6.228   7.051  10.093 -0.3155 -1.3147  0.2233
 9232SOL    HW229138   6.081   7.084  10.074 -0.5583 -1.3275  1.9389
 9233SOL     OW29139   6.972   3.290   7.940 -0.2639  0.1516  0.0526
 9233SOL    HW129140   7.055   3.255   7.906  0.4221  1.5957  0.1325
 9233SOL    HW229141   6.911   3.216   7.937  0.8886 -0.8130 -0.4886
 9234SOL     OW29142   1.467   7.318   6.997 -0.2100 -0.5966 -0.5665
 9234SOL    HW129143   1.399   7.337   6.932 -0.4204  1.3004  0.1547
 9234SOL    HW229144   1.489   7.403   7.034  0.1979 -1.5812  1.5872
 9235SOL     OW29145   0.219   2.406  11.367  0.6395  1.0974 -0.4484
 9235SOL    HW129146   0.289   2.428  11.428  0.0650 -0.4524  0.8185
 9235SOL    HW229147   0.254   2.335  11.313  0.8134  1.8411 -1.3552
 9236SOL     OW29148   0.277   6.092   5.672  0.2002 -0.1247  0.0072
 9236SOL    HW129149   0.222   6.014   5.669 -2.0805  1.4017  0.0543
 9236SOL    HW229150   0.218   6.163   5.697  2.7466  1.1760  3.0065
 9237SOL     OW29151   0.585   7.317   1.714  0.0247 -0.0203 -0.7305
 9237SOL    HW129152   0.659   7.305   1.773 -0.1066  0.5641 -0.4402
 9237SOL    HW229153   0.568   7.411   1.715 -1.4661 -0.2626  0.1403
 9238SOL     OW29154   2.181   4.541   7.905 -0.2732  0.4714  0.4831
 9238SOL    HW129155   2.262   4.538   7.956  0.5866  0.6665 -0.8257
 9238SOL    HW229156   2.195   4.610   7.840 -1.7479  0.9454  0.6323
 9239SOL     OW29157   6.188   7.804   8.592  0.4678 -0.0618 -0.2507
 9239SOL    HW129158   6.229   7.741   8.652  1.2770  1.2260  0.6265
 9239SOL    HW229159   6.095   7.797   8.610  0.4982 -1.3584 -0.5368
 9240SOL     OW29160   0.178   1.693   5.678  0.1208 -0.3071 -0.4052
 9240SOL    HW129161   0.087   1.689   5.648  0.2355  0.2000 -0.8355
 9240SOL    HW229162   0.183   1.629   5.749 -0.9979  0.8553  0.7548
 9241SOL     OW29163   2.616   6.419   3.133  0.1928 -0.1298 -0.8102
 9241SOL    HW129164   2.667   6.477   3.076  0.0639 -0.0903 -0.8862
 9241SOL    HW229165   2.525   6.434   3.107  0.2003 -0.8948 -1.3201
 9242SOL     OW29166   5.207   0.198   0.980 -0.2246  0.0003 -0.0559
 9242SOL    HW129167   5.266   0.123   0.982  1.3630  1.0553 -2.5313
 9242SOL    HW229168   5.236   0.253   1.053  1.9480  0.4893 -1.2052
 9243SOL     OW29169   0.068   0.086  11.078  0.4306  0.1359  0.4432
 9243SOL    HW129170   0.074   0.010  11.020 -2.0584  1.1870 -1.3871
 9243SOL    HW229171  -0.022   0.117  11.067  1.8933  4.7218 -0.7604
 9244SOL     OW29172   2.360   6.326   7.071  0.1456 -0.4369 -0.3466
 9244SOL    HW129173   2.387   6.250   7.121 -0.6589 -0.9130 -0.6129
 9244SOL    HW229174   2.268   6.309   7.049  0.0671  0.4263 -0.7431
 9245SOL     OW29175   4.969   3.009  10.517 -0.4565  0.3963 -0.2835
 9245SOL    HW129176   4.897   2.975  10.464  0.1009  1.3475 -1.7097
 9245SOL    HW229177   5.028   3.049  10.454  0.6710  0.8104  0.9939
 9246SOL     OW29178   1.110   1.355   5.644  0.1353 -0.7060  0.1339
 9246SOL    HW129179   1.055   1.432   5.628  1.2273 -0.1226 -0.9979
 9246SOL    HW229180   1.151   1.337   5.559  0.6206 -1.9788  0.6140
 9247SOL     OW29181   1.797   5.431   2.902  0.2267  0.4194 -0.2618
 9247SOL    HW129182   1.738   5.493   2.944 -0.5088 -1.0292  0.9530
 9247SOL    HW229183   1.883   5.470   2.909 -0.3542  1.7893 -0.5214
 9248SOL     OW29184   1.428   5.707   7.805 -0.1731 -0.4856 -0.4910
 9248SOL    HW129185   1.402   5.616   7.824  0.8244 -0.8610 -0.8739
 9248SOL    HW229186   1.519   5.700   7.776 -0.4753  0.5142 -1.7151
 9249SOL     OW29187   5.653   5.998  10.962  0.2845  0.0500  0.0808
 9249SOL    HW129188   5.646   5.938  11.036  1.8424  2.3214  2.2262
 9249SOL    HW229189   5.582   6.060  10.974 -0.0185 -0.0943 -0.8933
 9250SOL     OW29190   1.577   6.739   1.383 -0.2436 -0.7220 -0.1246
 9250SOL    HW129191   1.541   6.814   1.335  1.4995 -1.1677 -2.2985
 9250SOL    HW229192   1.543   6.749   1.472 -1.4145  1.6988 -0.7546
 9251SOL     OW29193   3.193   7.905   1.419 -1.0331  0.3052 -0.3843
 9251SOL    HW129194   3.261   7.864   1.365 -0.2577 -0.1463  0.9007
 9251SOL    HW229195   3.238   7.975   1.466 -1.3756 -0.1759  0.6952
 9252SOL     OW29196   0.281   1.648   0.822 -0.0170  0.2602  0.2595
 9252SOL    HW129197   0.261   1.730   0.777  1.1928 -0.0559 -0.9533
 9252SOL    HW229198   0.198   1.618   0.857 -0.2797  2.6320  1.8618
 9253SOL     OW29199   6.717   7.415   0.157 -0.6324 -0.7223  0.3853
 9253SOL    HW129200   6.808   7.396   0.134 -0.8915  0.4294 -1.8009
 9253SOL    HW229201   6.722   7.455   0.244  1.0149 -0.1781  0.0636
 9254SOL     OW29202   2.065   4.440  12.038 -0.1034 -0.0166  0.1261
 9254SOL    HW129203   1.976   4.469  12.056  0.4932  1.3133  1.1273
 9254SOL    HW229204   2.110   4.518  12.007  1.2816 -0.0730  1.8367
 9255SOL     OW29205   2.127   6.223   1.981 -0.2162  0.1416  0.4114
 9255SOL    HW129206   2.217   6.252   1.998 -0.4241 -0.6855  3.6873
 9255SOL    HW229207   2.078   6.305   1.972  0.7368  0.6104 -0.8579
 9256SOL     OW29208   7.301   0.608   6.194 -0.0776  0.5733 -0.2380
 9256SOL    HW129209   7.340   0.693   6.173 -1.6924  1.2890 -0.4184
 9256SOL    HW229210   7.357   0.545   6.147  0.3966  1.6225 -1.1306
 9257SOL     OW29211   1.286   6.847   3.041  0.1220  0.0880 -0.0099
 9257SOL    HW129212   1.336   6.919   3.079 -0.3597  0.0475  0.7094
 9257SOL    HW229213   1.207   6.888   3.006  0.2199  0.0160 -0.3261
 9258SOL     OW29214   4.261   7.735   1.513 -0.0425 -0.5117  0.1954
 9258SOL    HW129215   4.252   7.813   1.567 -0.3305  0.8280 -1.6801
 9258SOL    HW229216   4.355   7.725   1.500 -0.0569  1.0399 -1.5385
 9259SOL     OW29217   4.573   1.130   7.920 -0.3467  0.3799 -0.1918
 9259SOL    HW129218   4.554   1.036   7.921  0.9418  0.1011  0.1035
 9259SOL    HW229219   4.548   1.161   8.007 -0.2106  0.1896 -0.0839
 9260SOL     OW29220   6.741   4.428   8.561  0.1426  0.1274 -0.5957
 9260SOL    HW129221   6.744   4.399   8.470  0.9543 -1.3571 -0.1202
 9260SOL    HW229222   6.812   4.380   8.604  0.6535  1.8273  0.5403
 9261SOL     OW29223   6.555   1.763   0.159  0.8519  0.4311 -0.2464
 9261SOL    HW129224   6.506   1.692   0.201  2.0677 -0.8361 -0.8875
 9261SOL    HW229225   6.601   1.721   0.087  1.9067  1.8124 -0.4170
 9262SOL     OW29226   1.796   1.466   8.645 -0.4352 -0.0110  0.0454
 9262SOL    HW129227   1.822   1.511   8.565 -0.6352 -0.1555 -0.1024
 9262SOL    HW229228   1.854   1.391   8.650 -0.2728  0.1217  0.1563
 9263SOL     OW29229   0.035   0.065   9.195 -0.0848 -0.5498 -0.0323
 9263SOL    HW129230   0.027   0.146   9.144  0.4426 -0.1766  0.4650
 9263SOL    HW229231   0.117   0.026   9.166  1.6445  1.0109  2.3396
 9264SOL     OW29232   3.028   2.043   3.249  0.7584 -0.1227  0.2781
 9264SOL    HW129233   2.958   1.978   3.242  0.5896 -0.0512  1.1704
 9264SOL    HW229234   3.035   2.060   3.343  1.2997  0.6061  0.1113
 9265SOL     OW29235   3.324   0.464   0.902  0.6067 -0.3947 -0.2240
 9265SOL    HW129236   3.343   0.421   0.986  1.6702 -0.2145 -0.3509
 9265SOL    HW229237   3.376   0.414   0.838  0.1256 -0.2760 -0.7112
 9266SOL     OW29238   1.191   7.746   0.099  0.0947 -0.4128  0.0910
 9266SOL    HW129239   1.166   7.825   0.051 -0.0780 -1.3349 -1.3960
 9266SOL    HW229240   1.277   7.767   0.136  0.1440  0.3967 -0.4435
 9267SOL     OW29241   2.819   1.968  10.843  0.4622  0.1122  0.1624
 9267SOL    HW129242   2.897   2.021  10.831 -0.3994  1.3272 -0.2842
 9267SOL    HW229243   2.852   1.878  10.852  1.8575  0.5334 -0.4732
 9268SOL     OW29244   3.602   4.002  10.439  0.0035  0.4523  0.2199
 9268SOL    HW129245   3.534   4.032  10.498 -0.8314 -1.3617  0.2506
 9268SOL    HW229246   3.596   3.907  10.441  0.6097  0.2913 -1.9960
 9269SOL     OW29247   3.987   6.005  11.146  0.4224 -0.0561 -0.0947
 9269SOL    HW129248   4.012   5.955  11.224  1.7033  0.9112  0.1528
 9269SOL    HW229249   3.906   5.964  11.115  1.5652 -2.4530 -0.0883
 9270SOL     OW29250   3.090   5.892  10.232  0.0074 -0.3603 -0.1794
 9270SOL    HW129251   3.146   5.895  10.310  2.8260 -1.2946 -1.9949
 9270SOL    HW229252   3.069   5.984  10.214 -0.9852 -0.1582  1.8195
 9271SOL     OW29253   3.801   5.530   4.424  0.6037  0.4215 -0.8382
 9271SOL    HW129254   3.881   5.484   4.450  0.0219  0.3713  1.0194
 9271SOL    HW229255   3.795   5.516   4.329  1.3213 -1.9272 -0.5994
 9272SOL     OW29256   5.501   5.896   8.070 -0.2006  0.3467 -0.3553
 9272SOL    HW129257   5.512   5.990   8.084  1.0506  0.2744 -0.7253
 9272SOL    HW229258   5.471   5.863   8.154  1.9935  0.7043  0.6554
 9273SOL     OW29259   5.792   3.945  10.808 -0.0040 -0.1282 -0.1549
 9273SOL    HW129260   5.758   3.863  10.844  1.6595  0.0392  1.9942
 9273SOL    HW229261   5.716   4.004  10.808 -0.6300 -0.8873  0.8715
 9274SOL     OW29262   1.617   4.558   1.472 -0.5955  0.4102  0.4112
 9274SOL    HW129263   1.527   4.525   1.481 -0.7794  1.1925  1.5966
 9274SOL    HW229264   1.641   4.535   1.382 -1.4858 -1.0101  0.4907
 9275SOL     OW29265   3.469   5.491   5.559 -0.0867 -0.1072 -0.1071
 9275SOL    HW129266   3.416   5.458   5.631 -1.9703  4.7012  1.0765
 9275SOL    HW229267   3.407   5.507   5.488  0.4727  1.4902 -0.2864
 9276SOL     OW29268   1.943   2.499   7.358 -0.4671 -0.1530 -0.2025
 9276SOL    HW129269   1.898   2.459   7.283 -2.1800  1.1411  0.0672
 9276SOL    HW229270   2.036   2.496   7.335 -0.7454 -2.0130 -1.2599
 9277SOL     OW29271   0.571   2.123   3.337 -0.0616  0.6614  0.1436
 9277SOL    HW129272   0.561   2.032   3.309 -2.4266  1.2044 -1.1152
 9277SOL    HW229273   0.628   2.163   3.271 -2.5067  1.0182 -1.9146
 9278SOL     OW29274   2.990   2.176   0.306 -0.5241  0.0553  0.3269
 9278SOL    HW129275   3.029   2.148   0.224 -0.8744  0.3818  0.0468
 9278SOL    HW229276   3.063   2.176   0.368 -0.3039 -0.4080  0.0748
 9279SOL     OW29277   5.593   0.596   4.858 -0.0037 -0.2384 -0.3455
 9279SOL    HW129278   5.532   0.575   4.788 -0.2364 -1.6669  0.2398
 9279SOL    HW229279   5.679   0.597   4.816  0.1303 -3.1896 -0.3765
 9280SOL     OW29280   2.602   5.131  11.104 -0.0607 -0.3586  0.4873
 9280SOL    HW129281   2.584   5.162  11.192  0.5754  1.9267 -0.1070
 9280SOL    HW229282   2.693   5.158  11.087 -1.1165  2.1816 -1.9290
 9281SOL     OW29283   0.649   0.279   5.894 -0.0569 -0.1552 -0.4259
 9281SOL    HW129284   0.590   0.354   5.885 -1.3850 -0.7518  2.2089
 9281SOL    HW229285   0.596   0.203   5.869  0.1156 -0.5141  0.2556
 9282SOL     OW29286   0.103   2.337   8.283 -0.4467 -0.5237 -0.0516
 9282SOL    HW129287   0.139   2.315   8.197 -0.5052 -0.4730 -0.0887
 9282SOL    HW229288   0.031   2.275   8.296 -1.1599  0.1929 -0.5206
 9283SOL     OW29289   0.923   0.356  11.577 -0.2646 -0.0781 -0.1913
 9283SOL    HW129290   0.828   0.349  11.568 -0.0453 -2.3518 -1.3163
 9283SOL    HW229291   0.936   0.423  11.644 -2.6271  0.6998 -0.4372
 9284SOL     OW29292   5.360   1.409   0.791  0.5521 -0.3791 -0.0684
 9284SOL    HW129293   5.412   1.355   0.850  0.8030  0.6587  0.6958
 9284SOL    HW229294   5.335   1.485   0.843  1.2543  0.8455 -1.4258
 9285SOL     OW29295   0.417   2.205   4.484 -0.4137 -0.7232 -0.2314
 9285SOL    HW129296   0.505   2.199   4.520 -0.4004 -0.9604 -0.2986
 9285SOL    HW229297   0.368   2.137   4.531 -0.8864  0.2521  0.7173
 9286SOL     OW29298   1.134   2.986   1.536 -0.3524  0.2261 -0.8256
 9286SOL    HW129299   1.178   2.904   1.556  1.2969  1.0542 -0.8900
 9286SOL    HW229300   1.174   3.050   1.595 -0.8992  1.1828 -1.4647
 9287SOL     OW29301   5.268   6.682   1.201  0.0086 -0.0293  0.3964
 9287SOL    HW129302   5.211   6.635   1.262 -0.3251 -0.3396 -0.1488
 9287SOL    HW229303   5.253   6.640   1.116  0.8201  0.0917  0.1866
 9288SOL     OW29304   7.874   7.679   1.357 -0.2629  0.2213  0.5458
 9288SOL    HW129305   7.926   7.607   1.394 -0.4363 -0.9081 -1.2713
 9288SOL    HW229306   7.831   7.719   1.433 -0.0741 -1.5301  1.6425
 9289SOL     OW29307   0.658   7.070   5.935 -0.5160 -0.2459  0.1654
 9289SOL    HW129308   0.716   7.011   5.887 -0.2571 -0.8642  1.1947
 9289SOL    HW229309   0.582   7.016   5.958 -0.4414 -0.0911  0.8059
 9290SOL     OW29310   0.465   0.164   3.192  0.1628 -0.6835 -0.1755
 9290SOL    HW129311   0.464   0.167   3.096 -0.0378 -3.0183 -0.3142
 9290SOL    HW229312   0.509   0.245   3.218 -2.5283  1.5787 -2.0757
 9291SOL     OW29313   7.742   0.886   4.739 -0.2495  0.3795 -0.1251
 9291SOL    HW129314   7.779   0.972   4.762 -1.5002  1.2378 -1.1616
 9291SOL    HW229315   7.656   0.885   4.780 -1.3634  0.7993 -2.3155
 9292SOL     OW29316   7.766   6.461   9.842  0.1859 -0.4208 -0.4666
 9292SOL    HW129317   7.834   6.431   9.902 -1.5703 -1.4575  1.1051
 9292SOL    HW229318   7.736   6.380   9.799 -0.0689  0.0196 -1.1259
 9293SOL     OW29319   4.902   1.148   2.741 -0.6726  0.2421 -0.2651
 9293SOL    HW129320   4.808   1.129   2.747 -0.9135  0.7605 -1.8502
 9293SOL    HW229321   4.906   1.239   2.711  0.3204  0.1154 -0.5465
 9294SOL     OW29322   7.327   3.548   0.501  0.1579  0.6836  0.1177
 9294SOL    HW129323   7.309   3.454   0.495 -1.1580  0.8730  0.6664
 9294SOL    HW229324   7.413   3.558   0.462 -0.5784 -0.4498 -1.9762
 9295SOL     OW29325   5.741   0.712   3.766  0.2327 -0.0163 -0.2314
 9295SOL    HW129326   5.681   0.655   3.813  0.2623  0.6724  0.6880
 9295SOL    HW229327   5.706   0.716   3.677  0.0810 -1.2239 -0.2425
 9296SOL     OW29328   1.529   1.217   4.053 -0.4108 -0.4273 -0.1678
 9296SOL    HW129329   1.609   1.245   4.008  0.4235  0.0878  1.5777
 9296SOL    HW229330   1.495   1.147   3.997  0.3993  0.3721 -1.7614
 9297SOL     OW29331   0.656   2.773   4.999 -0.2161  0.1631  0.0879
 9297SOL    HW129332   0.654   2.726   4.916 -2.4396  0.5648 -0.1508
 9297SOL    HW229333   0.736   2.826   4.996  0.5476 -1.0094 -1.0887
 9298SOL     OW29334   1.960   6.645   9.884  0.2947  0.2561  0.1362
 9298SOL    HW129335   2.027   6.713   9.890  0.1474  0.9950 -3.7482
 9298SOL    HW229336   1.884   6.690   9.849 -1.3560 -1.1297  1.7709
 9299SOL     OW29337   4.281   6.314   0.680 -0.3345 -0.1919 -0.4448
 9299SOL    HW129338   4.312   6.364   0.605  0.0500  1.0941  0.5494
 9299SOL    HW229339   4.304   6.366   0.756 -2.5229 -0.4773  0.5030
 9300SOL     OW29340   1.026   3.770   1.201  0.4561  0.2478 -0.2286
 9300SOL    HW129341   1.046   3.703   1.136 -0.5894 -0.4259  0.1110
 9300SOL    HW229342   1.092   3.757   1.270 -0.5982 -1.4333  0.5268
 9301SOL     OW29343   0.828   2.088   8.753  0.7123 -0.1926 -0.1637
 9301SOL    HW129344   0.797   2.146   8.822  0.7356  1.3309 -1.3833
 9301SOL    HW229345   0.767   2.101   8.680  1.6700 -0.4408 -1.0426
 9302SOL     OW29346   1.038   1.068   7.947  0.2333 -0.2236  0.1265
 9302SOL    HW129347   1.112   1.122   7.919 -0.9630  0.1503 -2.5621
 9302SOL    HW229348   1.046   0.988   7.896 -1.1786 -0.1945 -0.1806
 9303SOL     OW29349   7.311   5.640   6.899 -0.0220 -0.3096  0.5453
 9303SOL    HW129350   7.258   5.710   6.937 -0.1274 -0.6927  1.1171
 9303SOL    HW229351   7.325   5.578   6.971  1.3328 -0.1524  0.4548
 9304SOL     OW29352   6.160   4.501   8.630 -0.0454  0.1739  0.1346
 9304SOL    HW129353   6.179   4.595   8.633  0.0719  0.1346  0.6329
 9304SOL    HW229354   6.162   4.473   8.721 -0.7493 -0.1809  0.0434
 9305SOL     OW29355   6.366   0.270   3.840 -0.1234 -0.1524 -0.1382
 9305SOL    HW129356   6.423   0.276   3.763  0.8099 -2.0457  0.3372
 9305SOL    HW229357   6.418   0.304   3.912 -0.8819  1.3213 -0.2562
 9306SOL     OW29358   4.572   3.559   1.888 -0.1906 -0.3890  0.3966
 9306SOL    HW129359   4.609   3.586   1.804  1.4895  1.4501  1.6387
 9306SOL    HW229360   4.532   3.473   1.870 -0.8824  0.4289 -2.4944
 9307SOL     OW29361   0.436   2.066   3.555  0.0790 -0.0497 -0.9941
 9307SOL    HW129362   0.489   2.080   3.476  0.9179  0.7666 -0.3203
 9307SOL    HW229363   0.375   2.139   3.556  0.4414  0.2560 -0.6123
 9308SOL     OW29364   6.523   0.327  10.356  0.3929 -0.3083  0.6674
 9308SOL    HW129365   6.557   0.417  10.353 -0.1856 -0.1089 -1.9314
 9308SOL    HW229366   6.567   0.283  10.283 -0.5423 -1.6814  0.9038
 9309SOL     OW29367   0.432   5.221   2.314 -0.5989 -0.1205  0.0224
 9309SOL    HW129368   0.459   5.312   2.303  0.1388  0.1493  3.1418
 9309SOL    HW229369   0.360   5.209   2.252  0.4810  1.9966 -1.7619
 9310SOL     OW29370   6.150   2.683   8.606  0.1172 -0.0552  0.3913
 9310SOL    HW129371   6.143   2.593   8.640  1.3279 -0.1807  0.3370
 9310SOL    HW229372   6.220   2.723   8.657  0.0754  0.6352 -0.0764
 9311SOL     OW29373   2.303   1.695   9.376 -0.4569  0.1454 -0.0695
 9311SOL    HW129374   2.310   1.600   9.386  0.2922  0.3577  1.7390
 9311SOL    HW229375   2.375   1.730   9.429 -2.3468  1.7805  1.5697
 9312SOL     OW29376   0.019   5.421  12.367 -0.8489 -0.5833 -0.2441
 9312SOL    HW129377   0.030   5.347  12.427  0.5277 -1.1170 -1.1033
 9312SOL    HW229378   0.036   5.383  12.280  1.0929  0.9518 -0.6066
 9313SOL     OW29379   7.739   6.019   0.118 -0.3693  0.5855  0.1276
 9313SOL    HW129380   7.689   6.096   0.090 -1.2165  0.2706  0.7559
 9313SOL    HW229381   7.676   5.966   0.167  0.4422 -0.0818  0.4600
 9314SOL     OW29382   4.507   0.019   1.018 -0.1713 -0.1922  0.0981
 9314SOL    HW129383   4.601   0.034   1.018 -0.2862  0.7495 -1.2831
 9314SOL    HW229384   4.469   0.106   1.008 -1.2971 -0.2732  2.7587
 9315SOL     OW29385   4.256   3.176   0.133  0.3877  0.0084 -0.3016
 9315SOL    HW129386   4.259   3.113   0.205 -1.3150  2.2196  1.8893
 9315SOL    HW229387   4.240   3.123   0.055 -0.2938 -2.3039  1.3146
 9316SOL     OW29388   5.015   7.020   9.959 -0.1133 -0.7249 -0.1590
 9316SOL    HW129389   4.974   7.069  10.030 -0.6870 -0.5616 -0.5905
 9316SOL    HW229390   4.993   7.071   9.880 -1.7119 -2.2677 -0.7687
 9317SOL     OW29391   2.433   2.545   0.465 -0.3145  0.2928  0.0389
 9317SOL    HW129392   2.419   2.636   0.439 -2.1700  0.1642  0.4473
 9317SOL    HW229393   2.507   2.549   0.526  1.5510  1.0965 -2.1473
 9318SOL     OW29394   6.661   6.980   9.184 -0.2180 -0.1316  0.1722
 9318SOL    HW129395   6.666   7.075   9.174 -1.2695  0.0064  0.7901
 9318SOL    HW229396   6.752   6.952   9.194  0.2364  0.6113 -1.5627
 9319SOL     OW29397   5.978   4.834   8.875 -0.0189 -0.3507  0.2504
 9319SOL    HW129398   5.941   4.813   8.961 -0.5878 -1.2236 -0.1936
 9319SOL    HW229399   6.040   4.905   8.892 -0.5473 -0.1215  1.2901
 9320SOL     OW29400   7.587   0.262   6.440 -0.3106 -0.4096  0.1761
 9320SOL    HW129401   7.511   0.315   6.463  0.3666  1.9097 -2.4955
 9320SOL    HW229402   7.652   0.284   6.506 -0.5341  0.9853 -0.0519
 9321SOL     OW29403   1.123   3.793   4.511 -0.1147 -0.1544  0.0658
 9321SOL    HW129404   1.100   3.868   4.566  1.0468  1.0115 -0.9586
 9321SOL    HW229405   1.039   3.754   4.488 -0.7065  0.3329  1.2781
 9322SOL     OW29406   1.761   5.177   8.194 -0.6824  0.1330  0.5184
 9322SOL    HW129407   1.721   5.259   8.165 -0.7746 -0.3837 -0.9086
 9322SOL    HW229408   1.765   5.184   8.289 -1.4744  1.4267  0.4766
 9323SOL     OW29409   4.765   6.328   5.709  0.1978  0.1541  0.1869
 9323SOL    HW129410   4.674   6.338   5.681 -0.3253  1.4691  2.1145
 9323SOL    HW229411   4.808   6.283   5.636 -2.0038 -0.6171 -0.7252
 9324SOL     OW29412   2.323   3.992  11.029 -0.5623  0.8318  0.1797
 9324SOL    HW129413   2.373   3.927  11.078 -0.6040  1.6090  1.3003
 9324SOL    HW229414   2.389   4.040  10.979 -0.7014 -1.2492 -2.1932
 9325SOL     OW29415   4.541   0.423   6.000 -0.2047  0.3054  0.1095
 9325SOL    HW129416   4.497   0.373   5.931  0.4396  0.7022 -0.6049
 9325SOL    HW229417   4.544   0.513   5.966 -1.8623  0.9813  1.6145
 9326SOL     OW29418   1.740   5.689   8.595  0.5727 -0.1124  0.1119
 9326SOL    HW129419   1.730   5.594   8.599 -1.5772  0.0987  0.9438
 9326SOL    HW229420   1.654   5.724   8.618  1.6115  2.0624  1.0561
 9327SOL     OW29421   2.432   4.543   0.246 -0.5565  0.2949 -0.1560
 9327SOL    HW129422   2.432   4.529   0.152  0.0313  0.4294 -0.1752
 9327SOL    HW229423   2.448   4.456   0.284  0.2268  0.4160 -0.2056
 9328SOL     OW29424   5.294   5.317   4.195 -0.2382  0.1365  0.1782
 9328SOL    HW129425   5.231   5.303   4.124 -0.2653  0.0421  0.2200
 9328SOL    HW229426   5.365   5.256   4.176 -0.5721 -0.4013  0.6138
 9329SOL     OW29427   3.926   6.664   7.608  0.4573 -0.5117  0.4105
 9329SOL    HW129428   4.015   6.696   7.596  0.2121  0.5614  1.3053
 9329SOL    HW229429   3.898   6.638   7.520  2.0157 -1.9120  0.2883
 9330SOL     OW29430   7.162   6.544   5.113  0.1181  0.0404  0.2014
 9330SOL    HW129431   7.103   6.477   5.079 -0.3046 -0.3080  1.5745
 9330SOL    HW229432   7.108   6.623   5.118 -0.7799 -0.6479  2.9670
 9331SOL     OW29433   5.273   6.453  11.151 -0.4761  0.4957  0.4127
 9331SOL    HW129434   5.346   6.475  11.094 -1.1411 -0.1271 -0.7327
 9331SOL    HW229435   5.227   6.535  11.165 -0.5442  0.5867 -0.3128
 9332SOL     OW29436   5.010   7.887  10.378  0.1238 -0.0237 -0.1050
 9332SOL    HW129437   4.930   7.929  10.348 -1.0479 -1.5685  0.7717
 9332SOL    HW229438   5.076   7.914  10.314 -1.1490  1.0141 -1.0266
 9333SOL     OW29439   3.725   2.902  11.796 -0.2728 -0.6075 -0.0672
 9333SOL    HW129440   3.698   2.811  11.795 -0.4454 -0.5976  1.5077
 9333SOL    HW229441   3.740   2.924  11.704 -1.9807 -1.6894 -0.6481
 9334SOL     OW29442   1.432   0.170   1.786 -0.4051 -0.1079  0.6558
 9334SOL    HW129443   1.485   0.123   1.849  0.7578  1.1757  0.6745
 9334SOL    HW229444   1.478   0.253   1.772 -1.4827  0.3151 -0.6515
 9335SOL     OW29445   1.961   4.491   1.639  0.1924  0.1982  0.1125
 9335SOL    HW129446   1.910   4.417   1.605 -0.0004  0.6756 -0.6629
 9335SOL    HW229447   2.041   4.450   1.673 -0.0496 -0.4002 -0.0133
 9336SOL     OW29448   5.101   5.511   7.133 -0.1619  0.2022  0.3955
 9336SOL    HW129449   5.187   5.515   7.091 -1.1068 -0.0448 -1.6552
 9336SOL    HW229450   5.061   5.596   7.112 -0.6670  0.0708  0.8185
 9337SOL     OW29451   5.943   3.399   7.921  0.0735  0.0208 -0.6757
 9337SOL    HW129452   6.020   3.361   7.963 -0.5201 -0.4346  0.0211
 9337SOL    HW229453   5.872   3.384   7.983 -0.5283  0.6717 -1.1918
 9338SOL     OW29454   7.173   1.357   7.162 -0.5955  0.4254  0.0378
 9338SOL    HW129455   7.236   1.285   7.167  0.3862  1.3436  1.8795
 9338SOL    HW229456   7.180   1.389   7.072  1.2117  0.1429  0.0447
 9339SOL     OW29457   2.447   6.766  11.469 -0.0910  0.3815  0.4086
 9339SOL    HW129458   2.363   6.808  11.449 -0.8037 -1.8205 -1.7487
 9339SOL    HW229459   2.424   6.690  11.522  0.4427 -0.4987 -0.5829
 9340SOL     OW29460   7.091   0.476   3.800 -0.4004 -0.0457 -0.1142
 9340SOL    HW129461   7.133   0.557   3.771  0.9991 -0.3454  0.9566
 9340SOL    HW229462   7.032   0.452   3.729 -0.4239  1.6109 -0.6844
 9341SOL     OW29463   4.473   6.065   0.524  0.2569 -0.2853  0.2371
 9341SOL    HW129464   4.452   6.087   0.433  0.2217  1.6906  0.6824
 9341SOL    HW229465   4.569   6.058   0.525  0.5889  2.7725  0.5738
 9342SOL     OW29466   6.327   7.873   9.844 -0.0768  0.1885  0.7491
 9342SOL    HW129467   6.390   7.803   9.829 -0.6491 -0.0142 -0.8056
 9342SOL    HW229468   6.365   7.950   9.802  0.4579  0.8143  2.2820
 9343SOL     OW29469   4.467   5.756   0.229  0.2549 -0.0362  0.6139
 9343SOL    HW129470   4.376   5.728   0.218  0.4987 -0.9399  0.8095
 9343SOL    HW229471   4.462   5.851   0.238 -0.4942  0.1321 -1.2252
 9344SOL     OW29472   5.054   6.744   9.937  0.4546  0.0888  0.0712
 9344SOL    HW129473   4.989   6.803   9.974 -0.4186 -0.8437  0.0668
 9344SOL    HW229474   5.107   6.800   9.880  0.5229  1.1261  1.1303
 9345SOL     OW29475   2.489   7.342   7.497  0.0907 -0.5648  0.0010
 9345SOL    HW129476   2.403   7.368   7.464 -0.0578 -0.4688  0.4588
 9345SOL    HW229477   2.471   7.271   7.559  0.3629 -0.7057 -0.0788
 9346SOL     OW29478   5.967   3.173   5.739 -0.0158  0.0819  0.6282
 9346SOL    HW129479   6.008   3.087   5.733 -2.0829 -0.8637 -0.8863
 9346SOL    HW229480   6.018   3.228   5.678 -0.0141 -0.6510 -0.0483
 9347SOL     OW29481   4.858   2.925   7.662  0.1067 -0.2980  0.1218
 9347SOL    HW129482   4.913   2.851   7.636 -1.3758 -0.8577 -1.5709
 9347SOL    HW229483   4.893   3.000   7.613  1.0856 -0.0132  1.2063
 9348SOL     OW29484   5.147   7.588  11.947 -0.0308  0.4229 -0.0624
 9348SOL    HW129485   5.166   7.638  12.026  0.3266 -1.4413  1.1074
 9348SOL    HW229486   5.053   7.570  11.951  0.1931 -0.6852  0.6046
 9349SOL     OW29487   3.881   6.063   1.159 -0.3183  0.3859  0.0071
 9349SOL    HW129488   3.961   6.089   1.112 -0.8950 -0.0109 -1.2580
 9349SOL    HW229489   3.853   6.142   1.205 -0.5142  1.2310 -1.4945
 9350SOL     OW29490   0.839   4.388  10.412  0.2259  0.5195 -0.5652
 9350SOL    HW129491   0.829   4.475  10.372 -0.6049  1.0000  0.6370
 9350SOL    HW229492   0.863   4.331  10.339 -1.1510  1.3854 -1.7571
 9351SOL     OW29493   4.360   5.022   7.906 -0.8486 -0.2848 -0.0820
 9351SOL    HW129494   4.416   4.985   7.975 -2.2589 -3.8971 -0.6932
 9351SOL    HW229495   4.271   5.016   7.941 -1.3160  0.9627 -0.9747
 9352SOL     OW29496   7.273   4.674   8.404  0.0633  0.3885 -0.6628
 9352SOL    HW129497   7.278   4.741   8.335  0.6497 -0.9192 -1.9567
 9352SOL    HW229498   7.361   4.674   8.442 -0.1523  0.8494 -0.1517
 9353SOL     OW29499   2.315   2.605  11.391  0.1871 -0.3405 -0.3591
 9353SOL    HW129500   2.240   2.553  11.363 -0.3268 -0.3733  0.9808
 9353SOL    HW229501   2.290   2.695  11.373 -0.1992 -0.3496  0.0983
 9354SOL     OW29502   7.251   6.188   7.223 -0.1469  0.0827  0.5152
 9354SOL    HW129503   7.291   6.208   7.139  0.4551 -0.1776  0.7363
 9354SOL    HW229504   7.216   6.099   7.212  0.2989 -0.1125  0.6741
 9355SOL     OW29505   7.679   3.453   8.061 -0.5533  0.4212 -0.8055
 9355SOL    HW129506   7.758   3.472   8.011 -0.0070  1.6998  0.4858
 9355SOL    HW229507   7.690   3.500   8.143 -1.2072 -1.9856  0.7669
 9356SOL     OW29508   7.097   3.743   2.147  0.6013 -0.2525  0.2164
 9356SOL    HW129509   7.046   3.726   2.067 -0.4661 -0.3269  0.8971
 9356SOL    HW229510   7.159   3.669   2.152  2.0171  0.7384 -1.5469
 9357SOL     OW29511   2.401   7.005   1.235  0.3258 -0.3808 -0.1806
 9357SOL    HW129512   2.339   6.938   1.207  0.7728 -0.7701 -0.2446
 9357SOL    HW229513   2.436   7.041   1.153  0.7351 -0.6777 -0.1358
 9358SOL     OW29514   7.696   3.962   0.005 -0.7698  0.2373  0.5744
 9358SOL    HW129515   7.673   3.973  -0.087 -0.9425  0.6621  0.6681
 9358SOL    HW229516   7.637   3.893   0.037  0.3494 -1.0456 -0.0252
 9359SOL     OW29517   4.461   6.435  10.755 -0.2922  0.0829 -0.0665
 9359SOL    HW129518   4.542   6.485  10.766  0.3658 -1.0935  0.6090
 9359SOL    HW229519   4.470   6.361  10.815 -2.4375  0.6038  0.9921
 9360SOL     OW29520   4.059   0.342   3.671 -0.4936  0.7830  0.2807
 9360SOL    HW129521   4.106   0.387   3.602 -4.2191  2.0502 -1.6946
 9360SOL    HW229522   4.071   0.249   3.652  0.2771  1.0911 -0.7883
 9361SOL     OW29523   0.097   4.755   9.827  0.0563 -0.3045 -0.0908
 9361SOL    HW129524   0.088   4.748   9.732 -1.3053 -0.2184  0.0056
 9361SOL    HW229525   0.140   4.674   9.854  2.5202  0.6193 -0.9754
 9362SOL     OW29526   4.668   2.347   1.637 -0.0480  0.0315 -0.3191
 9362SOL    HW129527   4.613   2.291   1.690 -0.8453  0.1056 -1.0401
 9362SOL    HW229528   4.703   2.412   1.698  1.2195 -1.4469  0.6065
 9363SOL     OW29529   1.767   7.498   2.828 -0.4484 -0.4278  0.2334
 9363SOL    HW129530   1.675   7.509   2.854 -0.6977 -0.4257 -0.6299
 9363SOL    HW229531   1.773   7.542   2.743  0.9891  2.0117  1.4738
 9364SOL     OW29532   6.228   6.933   2.133  0.2525  0.2522  0.0682
 9364SOL    HW129533   6.168   6.908   2.203 -0.3457 -0.5572 -0.7117
 9364SOL    HW229534   6.231   6.857   2.075  0.2024  1.1334 -1.1474
 9365SOL     OW29535   0.857   6.443   1.172 -0.2862  0.1084  0.3400
 9365SOL    HW129536   0.839   6.413   1.084  1.6664  3.0365 -1.2448
 9365SOL    HW229537   0.867   6.538   1.164  2.9157  0.2209  3.0850
 9366SOL     OW29538   1.861   6.393   6.360  0.2914 -0.2650  0.1947
 9366SOL    HW129539   1.912   6.455   6.308 -0.6303 -0.9813 -1.6572
 9366SOL    HW229540   1.770   6.410   6.335 -0.0641 -1.5383  0.5540
 9367SOL     OW29541   2.150   2.764   0.990 -0.1445 -0.0453  0.2899
 9367SOL    HW129542   2.182   2.726   0.908  0.9206  0.7576  0.3044
 9367SOL    HW229543   2.230   2.792   1.036 -0.8390  2.0979  0.3139
 9368SOL     OW29544   3.359   5.476   8.913  0.1356 -0.3658 -0.0234
 9368SOL    HW129545   3.384   5.410   8.978 -1.7660 -1.8297 -0.6768
 9368SOL    HW229546   3.317   5.426   8.843 -1.9722  1.5538 -0.2591
 9369SOL     OW29547   1.059   2.268  11.694 -0.2935  0.4339  0.0686
 9369SOL    HW129548   1.123   2.213  11.738 -1.0990 -1.1185 -0.6472
 9369SOL    HW229549   0.985   2.272  11.754 -0.3856  0.4202 -0.0432
 9370SOL     OW29550   4.031   3.416   7.236  0.4008 -0.8339  0.6667
 9370SOL    HW129551   3.999   3.394   7.149  0.0192  1.4686  0.1523
 9370SOL    HW229552   3.952   3.440   7.285  0.5980 -2.2123  1.7206
 9371SOL     OW29553   0.220   3.174   2.624  0.1147 -0.2204  0.1709
 9371SOL    HW129554   0.206   3.111   2.553  0.0547 -1.5285  1.3091
 9371SOL    HW229555   0.296   3.141   2.671 -0.2705  0.2206  1.1404
 9372SOL     OW29556   2.009   3.138   8.699 -0.2433  0.5891 -0.0344
 9372SOL    HW129557   1.922   3.116   8.734 -0.9621  3.2669  0.1169
 9372SOL    HW229558   2.052   3.186   8.769  1.5842 -1.0143  0.0280
 9373SOL     OW29559   0.086   3.273   4.902 -1.0204  0.4133 -0.0366
 9373SOL    HW129560   0.046   3.257   4.816 -0.4457  1.9171 -0.6180
 9373SOL    HW229561   0.059   3.362   4.925 -0.7734  0.2002  1.1310
 9374SOL     OW29562   7.481   4.712   3.983  0.1373  0.0271  0.4283
 9374SOL    HW129563   7.401   4.762   4.000 -1.3717 -2.2794  0.4345
 9374SOL    HW229564   7.514   4.688   4.069 -0.6701 -1.2314  0.4160
 9375SOL     OW29565   3.495   4.871   5.061  0.2020  0.3068  0.5965
 9375SOL    HW129566   3.482   4.959   5.025 -0.7863  0.2610  0.8114
 9375SOL    HW229567   3.445   4.871   5.143  1.9496  0.2276  1.7037
 9376SOL     OW29568   7.533   2.359  10.055 -0.1845 -0.1578 -0.4795
 9376SOL    HW129569   7.513   2.270  10.029 -2.2215  0.1303 -0.0365
 9376SOL    HW229570   7.482   2.374  10.135 -0.8993  1.8019 -1.2328
 9377SOL     OW29571   3.351   5.003   4.547  0.0326  0.0011 -0.4910
 9377SOL    HW129572   3.430   5.055   4.533  0.0448  0.3069  0.6024
 9377SOL    HW229573   3.280   5.054   4.509 -0.0843  1.2708  1.2760
 9378SOL     OW29574   3.281   5.277   4.429 -0.0640 -0.3899 -0.3948
 9378SOL    HW129575   3.365   5.322   4.423  0.2744 -0.7097  1.4005
 9378SOL    HW229576   3.260   5.253   4.339  1.0618  0.9514 -1.0500
 9379SOL     OW29577   6.389   2.497   8.966 -0.0797  0.3193  0.0701
 9379SOL    HW129578   6.469   2.545   8.943  0.5165 -0.5373  0.2659
 9379SOL    HW229579   6.421   2.413   8.999 -1.0739 -0.0609  0.1033
 9380SOL     OW29580   0.941   7.648   2.076  0.4619  0.3244  0.3316
 9380SOL    HW129581   0.863   7.604   2.044  1.4553 -0.8932 -0.5153
 9380SOL    HW229582   0.949   7.618   2.167 -0.5727  1.2375  0.7463
 9381SOL     OW29583   5.328   4.045   9.288 -0.4547  0.1418  0.3369
 9381SOL    HW129584   5.400   4.086   9.240  0.4582 -1.2752  0.4239
 9381SOL    HW229585   5.253   4.048   9.228 -0.1119  0.9590 -0.0492
 9382SOL     OW29586   6.992   3.884   4.223 -0.3363  0.3839  0.4104
 9382SOL    HW129587   6.967   3.803   4.178  1.5003  0.3056 -0.5438
 9382SOL    HW229588   6.919   3.944   4.206 -0.5939 -0.2866 -0.9973
 9383SOL     OW29589   0.740   6.017  12.125  0.0010 -0.1008  0.0753
 9383SOL    HW129590   0.732   5.941  12.068  0.2953 -1.1950  1.4470
 9383SOL    HW229591   0.821   6.002  12.174 -1.1088 -0.1060  2.0348
 9384SOL     OW29592   5.212   1.990   5.560 -0.6357  0.4341  0.4220
 9384SOL    HW129593   5.178   1.948   5.639 -0.4910 -1.0047 -0.2466
 9384SOL    HW229594   5.301   2.017   5.583 -0.8913  0.7718  1.0079
 9385SOL     OW29595   0.085   2.124   6.014  0.6568 -0.3650 -0.1648
 9385SOL    HW129596   0.044   2.211   6.019  2.0610  0.3568 -0.8498
 9385SOL    HW229597   0.083   2.101   5.921  2.1534 -0.1173 -0.2856
 9386SOL     OW29598   7.282   2.346  10.750 -0.3419  0.0737 -0.4671
 9386SOL    HW129599   7.192   2.340  10.782 -0.2107 -1.0223 -0.2524
 9386SOL    HW229600   7.309   2.435  10.769 -0.9213  0.0087  0.7222
 9387SOL     OW29601   1.874   7.852   1.026  0.4839 -0.0098 -0.0580
 9387SOL    HW129602   1.802   7.841   0.964 -0.1098  0.7586  0.4647
 9387SOL    HW229603   1.830   7.870   1.109  1.2708 -0.7652  0.5308
 9388SOL     OW29604   6.073   2.162   5.090 -0.2256  0.5020 -0.1775
 9388SOL    HW129605   6.027   2.100   5.147  0.9802  0.1654  0.4818
 9388SOL    HW229606   6.110   2.227   5.150 -3.2119  3.1713 -0.9904
 9389SOL     OW29607   5.541   1.102   5.099 -0.0516  0.0687  0.0062
 9389SOL    HW129608   5.533   1.010   5.073  1.8291 -0.1116 -0.1009
 9389SOL    HW229609   5.618   1.133   5.051 -1.3574  2.0633 -0.9224
 9390SOL     OW29610   3.441   6.583   2.434 -0.5879  0.2428 -0.4222
 9390SOL    HW129611   3.482   6.496   2.437 -0.5622  0.2775  0.6261
 9390SOL    HW229612   3.369   6.578   2.497  1.5082  1.9778  2.4142
 9391SOL     OW29613   6.782   2.099   3.420  0.1501  0.0980  0.1788
 9391SOL    HW129614   6.742   2.049   3.491  1.6107 -0.4322  0.6621
 9391SOL    HW229615   6.850   2.151   3.463 -0.5836  1.6595 -0.4851
 9392SOL     OW29616   0.416   6.871   3.066 -0.0061  0.1537 -0.1288
 9392SOL    HW129617   0.435   6.778   3.078  0.7500 -0.0033 -2.0703
 9392SOL    HW229618   0.324   6.880   3.091  0.4551 -0.6641  2.0652
 9393SOL     OW29619   6.175   2.276  11.774 -0.4285  0.4329  0.3508
 9393SOL    HW129620   6.146   2.240  11.691 -1.6789  2.1357 -0.0208
 9393SOL    HW229621   6.144   2.213  11.840  0.8168 -1.0663 -0.4437
 9394SOL     OW29622   5.415   3.792   2.407 -0.7355  0.0547  0.2958
 9394SOL    HW129623   5.460   3.809   2.324  1.9401 -0.6890  1.4606
 9394SOL    HW229624   5.445   3.704   2.431 -2.3250 -0.1722  1.5347
 9395SOL     OW29625   5.539   5.900   3.893  0.4489  0.5608 -0.0680
 9395SOL    HW129626   5.581   5.913   3.978  1.2689  0.1606 -0.3945
 9395SOL    HW229627   5.505   5.811   3.896 -1.2054  1.1846  0.5241
 9396SOL     OW29628   6.414   3.799   8.151  0.6079  0.2910  0.2894
 9396SOL    HW129629   6.348   3.840   8.207 -0.5666  1.1003 -1.6111
 9396SOL    HW229630   6.433   3.864   8.084  3.5595  0.1689  0.8632
 9397SOL     OW29631   1.398   3.841   6.981 -0.2357 -0.0537 -0.7435
 9397SOL    HW129632   1.315   3.823   7.025  0.2697 -2.8528 -0.7807
 9397SOL    HW229633   1.387   3.805   6.893  0.9006 -0.1716 -0.8557
 9398SOL     OW29634   2.311   6.145   3.309  0.4887 -0.1581  0.1136
 9398SOL    HW129635   2.297   6.148   3.403  1.6176  0.5719  0.2814
 9398SOL    HW229636   2.275   6.061   3.282  0.4757 -0.5342  1.2559
 9399SOL     OW29637   4.893   6.096   1.102  0.3734 -0.1379  0.5371
 9399SOL    HW129638   4.875   6.060   1.015 -1.3718 -0.4458  0.9944
 9399SOL    HW229639   4.886   6.191   1.091  0.6485 -0.1496  0.2485
 9400SOL     OW29640   3.798   3.438   0.543  0.5758 -0.1907  0.0657
 9400SOL    HW129641   3.778   3.396   0.460 -0.0790  1.7386 -0.8126
 9400SOL    HW229642   3.871   3.497   0.524  0.4794  0.2140  0.8794
 9401SOL     OW29643   3.483   6.321  10.829  0.7354  0.0191 -0.2989
 9401SOL    HW129644   3.520   6.336  10.743  0.1772 -0.5990 -0.6649
 9401SOL    HW229645   3.481   6.226  10.838 -3.0414 -0.1749 -1.3975
 9402SOL     OW29646   6.046   1.455   8.351  0.2533 -0.1682  0.4345
 9402SOL    HW129647   6.132   1.483   8.383  0.3005  0.5232 -0.2543
 9402SOL    HW229648   6.049   1.473   8.256  0.2175 -2.3895 -0.0312
 9403SOL     OW29649   0.840   4.733   9.032 -0.2628 -0.1509  0.4417
 9403SOL    HW129650   0.832   4.829   9.034  1.3565  0.0184 -0.0330
 9403SOL    HW229651   0.909   4.713   9.095  0.9107 -0.7869 -0.9839
 9404SOL     OW29652   7.396   5.889   2.659 -0.2821 -0.6038 -0.0852
 9404SOL    HW129653   7.456   5.909   2.588  0.4404 -0.3658  0.5821
 9404SOL    HW229654   7.422   5.801   2.688  1.0757  0.2700  1.5004
 9405SOL     OW29655   4.878   5.302   1.519 -0.4492  0.2165 -0.0258
 9405SOL    HW129656   4.898   5.393   1.539  1.1432 -0.0856 -0.1653
 9405SOL    HW229657   4.878   5.298   1.423  0.1950 -0.0746 -0.0157
 9406SOL     OW29658   3.780   0.389   8.303  0.2682  0.4567 -0.0519
 9406SOL    HW129659   3.778   0.475   8.346 -0.0125  0.3472  0.1579
 9406SOL    HW229660   3.871   0.360   8.311  0.2263  0.4473  0.4542
 9407SOL     OW29661   2.721   4.704   9.272 -0.9078  0.2555 -0.2144
 9407SOL    HW129662   2.700   4.792   9.240  0.0088  0.5980  0.0715
 9407SOL    HW229663   2.755   4.658   9.195 -0.5401  0.4506 -0.1733
 9408SOL     OW29664   3.701   1.398   9.424 -0.4293  0.6846  0.5296
 9408SOL    HW129665   3.740   1.326   9.374 -0.1026  0.0911  1.6272
 9408SOL    HW229666   3.614   1.366   9.448 -0.5765  0.9626  0.3736
 9409SOL     OW29667   3.326   7.246   1.846  0.0738  0.1829  0.0327
 9409SOL    HW129668   3.332   7.232   1.941  0.2828  1.0627  0.1574
 9409SOL    HW229669   3.277   7.170   1.814  0.3538 -0.3318  0.7869
 9410SOL     OW29670   7.950   5.811   7.173  0.2001  0.0640 -0.4850
 9410SOL    HW129671   7.913   5.830   7.087  1.5238  2.5724 -0.5924
 9410SOL    HW229672   7.881   5.837   7.234 -0.5091 -1.1543 -0.7238
 9411SOL     OW29673   3.138   4.227  10.756 -0.3103  0.4041  0.0400
 9411SOL    HW129674   3.225   4.261  10.735  1.2005 -2.4935  1.0526
 9411SOL    HW229675   3.086   4.304  10.778  2.2139  2.1695  0.1359
 9412SOL     OW29676   7.388   2.781   4.985 -0.7001 -0.4879  0.5638
 9412SOL    HW129677   7.369   2.863   5.031 -1.3680 -0.0712 -0.4082
 9412SOL    HW229678   7.448   2.805   4.915  1.0739 -1.2828  1.7342
 9413SOL     OW29679   2.411   5.279   1.897 -0.5645 -0.4650  0.3100
 9413SOL    HW129680   2.458   5.204   1.861 -0.7458 -0.5002  0.1456
 9413SOL    HW229681   2.330   5.282   1.847  0.7699  1.7547 -1.9674
 9414SOL     OW29682   4.342   0.242   1.215  0.7018 -0.1305  0.0609
 9414SOL    HW129683   4.361   0.149   1.227 -0.4024 -0.5571 -1.1782
 9414SOL    HW229684   4.269   0.259   1.274  1.2203  0.0969  0.6537
 9415SOL     OW29685   2.094   6.844   3.409 -0.3052  0.0507 -0.2896
 9415SOL    HW129686   2.172   6.807   3.451  0.4324  1.4315 -0.3721
 9415SOL    HW229687   2.100   6.818   3.318 -0.1226 -0.1432 -0.2216
 9416SOL     OW29688   0.854   4.884   9.480 -0.0291 -0.2127  0.5635
 9416SOL    HW129689   0.853   4.929   9.396 -0.1892  1.3328  1.3661
 9416SOL    HW229690   0.784   4.819   9.473 -1.0956  0.9497  0.0391
 9417SOL     OW29691   3.059   7.684   4.111  0.1888  0.3201 -0.4243
 9417SOL    HW129692   3.012   7.645   4.185  2.3718 -0.7840  0.4691
 9417SOL    HW229693   3.021   7.771   4.101 -1.9289 -0.4603  0.2993
 9418SOL     OW29694   4.926   5.458  10.678 -0.4414  0.0974 -0.9164
 9418SOL    HW129695   4.846   5.470  10.627 -0.4383 -3.1359 -1.9311
 9418SOL    HW229696   4.997   5.461  10.613  0.3495  2.5433 -0.0815
 9419SOL     OW29697   4.844   3.613  10.547 -0.2570  0.2697 -0.1043
 9419SOL    HW129698   4.916   3.604  10.609 -1.1541 -0.2741  0.8850
 9419SOL    HW229699   4.799   3.693  10.575 -1.4419 -0.6834  0.8030
 9420SOL     OW29700   5.999   5.259   5.267  0.3537  0.1078  0.0461
 9420SOL    HW129701   5.926   5.320   5.270  1.1888  1.0829  1.5026
 9420SOL    HW229702   5.959   5.173   5.280 -0.5289  0.6339  0.8664
 9421SOL     OW29703   6.032   2.008   7.783 -0.8935  0.0715 -0.1145
 9421SOL    HW129704   6.100   1.974   7.841  0.4176 -2.6625 -2.9379
 9421SOL    HW229705   5.950   1.995   7.831  0.1911 -0.9596  1.5472
 9422SOL     OW29706   7.775   4.544   0.493  0.1914  0.3053 -0.0530
 9422SOL    HW129707   7.795   4.621   0.439  0.4692  0.3589  0.1264
 9422SOL    HW229708   7.686   4.518   0.466 -0.6512  1.7607  1.1440
 9423SOL     OW29709   6.634   2.581   3.753 -0.8216 -0.5938  0.0037
 9423SOL    HW129710   6.712   2.531   3.776 -1.8207 -2.4785 -0.5127
 9423SOL    HW229711   6.645   2.600   3.660  0.9355  2.8520  0.7400
 9424SOL     OW29712   6.549   4.380   9.004  0.2462  0.1974 -0.0248
 9424SOL    HW129713   6.515   4.388   8.915 -2.1466  0.8864  0.8657
 9424SOL    HW229714   6.569   4.287   9.014  0.5706  0.1212 -1.2858
 9425SOL     OW29715   1.655   3.249   0.600 -0.1687  0.0653  0.0972
 9425SOL    HW129716   1.602   3.304   0.543  0.9980  0.9549 -0.1799
 9425SOL    HW229717   1.607   3.166   0.607 -1.8409  1.0218  0.3300
 9426SOL     OW29718   1.663   0.271   8.408  0.1124  0.1074 -0.2269
 9426SOL    HW129719   1.625   0.331   8.344 -0.2531 -0.6870 -0.7664
 9426SOL    HW229720   1.596   0.205   8.423  1.1450 -1.1553 -0.9640
 9427SOL     OW29721   1.599   3.937   4.198  0.1010  0.3297  0.1825
 9427SOL    HW129722   1.569   4.023   4.228 -0.7995  0.5052 -1.1254
 9427SOL    HW229723   1.552   3.874   4.252  0.8214  0.6350  1.1971
 9428SOL     OW29724   0.788   0.539   7.376  0.3568  0.2429  0.3475
 9428SOL    HW129725   0.697   0.567   7.367  0.2136 -0.7542 -2.1419
 9428SOL    HW229726   0.819   0.581   7.456 -1.7348  2.1044  0.2627
 9429SOL     OW29727   1.099   2.592   8.186  0.3678 -0.3991  0.5345
 9429SOL    HW129728   1.161   2.519   8.178  0.2589 -0.7856  2.6899
 9429SOL    HW229729   1.021   2.562   8.139  1.0986 -0.7020 -0.5398
 9430SOL     OW29730   2.834   5.648   3.811 -0.1342  0.0937 -0.2016
 9430SOL    HW129731   2.905   5.711   3.817 -0.8866  1.0204 -0.6101
 9430SOL    HW229732   2.811   5.627   3.901  0.5477 -0.1039 -0.0700
 9431SOL     OW29733   6.747   6.547  12.123 -0.2319 -0.1592 -0.0774
 9431SOL    HW129734   6.723   6.493  12.047 -1.5193  0.7972 -0.3878
 9431SOL    HW229735   6.805   6.614  12.086 -0.5807  0.1019 -0.1496
 9432SOL     OW29736   5.178   6.928   9.190 -0.4663  0.1621 -0.0490
 9432SOL    HW129737   5.148   6.880   9.113  1.6820  0.7481 -1.3417
 9432SOL    HW229738   5.178   6.864   9.261 -0.5389 -0.9215 -1.0077
 9433SOL     OW29739   1.287   2.485   4.537 -0.3969 -0.2973 -0.1011
 9433SOL    HW129740   1.373   2.451   4.512 -0.3774  0.6468 -1.3911
 9433SOL    HW229741   1.267   2.440   4.619  0.9438 -1.1656 -0.2172
 9434SOL     OW29742   5.824   4.630   8.802 -0.2408 -0.2462  0.2370
 9434SOL    HW129743   5.892   4.697   8.809 -0.1012 -0.5166  2.2839
 9434SOL    HW229744   5.755   4.660   8.861 -2.3950  0.4685 -2.4513
 9435SOL     OW29745   7.403   6.912  12.152 -0.6774 -0.0265  0.1965
 9435SOL    HW129746   7.386   6.871  12.237  0.6922 -1.1637 -0.0232
 9435SOL    HW229747   7.476   6.972  12.169  1.0433 -1.7916 -0.4966
 9436SOL     OW29748   1.686   3.769   1.078 -0.3148 -0.0508 -0.5976
 9436SOL    HW129749   1.724   3.791   0.993 -0.2794  0.5820 -0.4247
 9436SOL    HW229750   1.594   3.796   1.071 -1.2202 -3.0242 -1.5730
 9437SOL     OW29751   3.592   7.068   9.280  0.3474  0.1881 -0.0545
 9437SOL    HW129752   3.620   7.021   9.358 -2.0861 -0.0081  0.7797
 9437SOL    HW229753   3.651   7.143   9.274  1.0808 -0.2410  1.5064
 9438SOL     OW29754   0.811   3.294   5.534 -0.1329  0.1791 -0.0688
 9438SOL    HW129755   0.749   3.364   5.513 -1.6980 -0.8729  0.7835
 9438SOL    HW229756   0.768   3.214   5.504  1.2473 -0.5078 -0.2838
 9439SOL     OW29757   4.984   2.972   8.606 -0.6501  0.0185  0.4597
 9439SOL    HW129758   4.958   3.020   8.527 -1.6949 -1.7445 -0.3226
 9439SOL    HW229759   4.968   3.034   8.678 -3.6561  0.2930 -0.3355
 9440SOL     OW29760   3.852   5.796  11.593  0.2193 -0.0464 -0.3508
 9440SOL    HW129761   3.905   5.778  11.671  0.3639 -0.8264 -0.6166
 9440SOL    HW229762   3.762   5.781  11.621  0.3028 -0.7302 -0.4365
 9441SOL     OW29763   4.508   5.210   3.305 -0.0964  0.2511 -0.4174
 9441SOL    HW129764   4.447   5.280   3.325  1.8029  1.5433  1.1600
 9441SOL    HW229765   4.583   5.225   3.362  0.5240 -2.9325 -0.1626
 9442SOL     OW29766   1.638   0.389   3.643  0.0655  0.2217 -0.9382
 9442SOL    HW129767   1.708   0.339   3.686 -0.7694 -2.6574 -2.6779
 9442SOL    HW229768   1.658   0.382   3.550 -1.4668  1.0669 -1.3562
 9443SOL     OW29769   4.742   3.860  10.679 -0.1244  0.4337 -0.1975
 9443SOL    HW129770   4.736   3.942  10.728 -1.9213  0.1634  0.1165
 9443SOL    HW229771   4.681   3.801  10.724 -2.1155  0.2546 -2.8944
 9444SOL     OW29772   7.561   7.437   0.178  0.3858 -0.3240  0.8495
 9444SOL    HW129773   7.491   7.398   0.231  1.8285 -2.1460  1.4991
 9444SOL    HW229774   7.522   7.448   0.091 -1.7333  1.8561  1.9480
 9445SOL     OW29775   4.676   3.885   2.790 -0.1095  0.3590 -0.0923
 9445SOL    HW129776   4.719   3.875   2.875 -1.1491  1.5228  0.6026
 9445SOL    HW229777   4.748   3.887   2.727  0.6241 -2.2711  0.5112
 9446SOL     OW29778   4.993   5.678   8.358 -0.3028 -0.2127 -0.1996
 9446SOL    HW129779   4.969   5.590   8.329  0.9296 -0.2034 -1.3181
 9446SOL    HW229780   5.027   5.666   8.446 -2.4745 -0.4810  0.6662
 9447SOL     OW29781   3.746   2.186  11.576 -0.0386 -0.0886  0.7627
 9447SOL    HW129782   3.679   2.248  11.605 -1.1455 -0.3934 -1.0191
 9447SOL    HW229783   3.829   2.233  11.590 -0.8548  1.9831 -0.8067
 9448SOL     OW29784   5.236   6.873   8.531  0.0199 -0.2380  0.1499
 9448SOL    HW129785   5.151   6.911   8.510  0.6128  0.1182 -1.8287
 9448SOL    HW229786   5.225   6.779   8.514  0.2492 -0.0674 -1.0369
 9449SOL     OW29787   2.099   3.507   0.788  0.3602  0.3716 -0.4777
 9449SOL    HW129788   2.111   3.561   0.866  0.5778  0.8954 -0.8687
 9449SOL    HW229789   2.016   3.536   0.751 -0.4238 -0.7980  0.2725
 9450SOL     OW29790   7.852   1.471   2.042 -0.2091  0.2418  0.1716
 9450SOL    HW129791   7.828   1.447   2.131 -0.2599  0.0144  0.0973
 9450SOL    HW229792   7.787   1.427   1.987  0.5613 -0.6350 -0.0525
 9451SOL     OW29793   6.217   5.931  11.214 -0.0231 -0.2689 -0.3988
 9451SOL    HW129794   6.310   5.951  11.226 -0.2049  0.8038 -0.6698
 9451SOL    HW229795   6.182   5.926  11.302  0.1324  0.1254 -0.3134
 9452SOL     OW29796   5.558   6.166   7.256  0.0219  0.4499 -0.1382
 9452SOL    HW129797   5.486   6.144   7.316 -1.3447  1.9304 -1.1599
 9452SOL    HW229798   5.517   6.220   7.189  2.0598  1.0875 -0.9238
 9453SOL     OW29799   5.765   5.114   5.481  0.6063 -0.4006  0.6726
 9453SOL    HW129800   5.691   5.106   5.541  0.4756 -0.7406  0.4705
 9453SOL    HW229801   5.735   5.073   5.400  1.0634 -0.6741  0.6357
 9454SOL     OW29802   7.059   2.855  11.902 -0.4610  0.1753 -0.2305
 9454SOL    HW129803   7.066   2.841  11.996 -2.1413  0.7745  0.0269
 9454SOL    HW229804   6.994   2.925  11.893  0.9922  1.4117 -1.7797
 9455SOL     OW29805   3.033   1.800   4.621 -0.7914  0.1463  0.0634
 9455SOL    HW129806   3.065   1.889   4.635  0.2148 -0.1834 -0.0365
 9455SOL    HW229807   3.004   1.799   4.530 -1.6670  0.6134  0.3250
 9456SOL     OW29808   5.471   7.023   8.472  0.0869  0.2160  0.4796
 9456SOL    HW129809   5.439   7.069   8.395 -0.0365  0.3818  0.6292
 9456SOL    HW229810   5.399   6.965   8.497  0.5437 -0.6753 -0.1992
 9457SOL     OW29811   3.617   6.688   5.164  0.3689  0.1379  0.4381
 9457SOL    HW129812   3.659   6.610   5.130  0.7568 -0.0583  1.3263
 9457SOL    HW229813   3.665   6.761   5.124 -0.5083 -0.0463 -1.0156
 9458SOL     OW29814   3.089   0.163   5.478  0.0260  0.1088  0.0618
 9458SOL    HW129815   3.037   0.168   5.559 -1.7309  0.9906 -1.0670
 9458SOL    HW229816   3.069   0.076   5.442 -0.1702  0.2022 -0.0544
 9459SOL     OW29817   0.279   4.869   2.597  0.1554 -0.2150  0.0392
 9459SOL    HW129818   0.325   4.891   2.516 -0.8325  1.4298 -0.1205
 9459SOL    HW229819   0.231   4.789   2.576  1.9411 -1.2885 -0.1523
 9460SOL     OW29820   5.131   4.238   8.792  0.1799  0.3778  0.9388
 9460SOL    HW129821   5.098   4.280   8.713  1.4762 -1.8788 -0.9213
 9460SOL    HW229822   5.223   4.265   8.797  0.8324 -1.5309  0.1185
 9461SOL     OW29823   4.224   5.833  11.743  0.1365 -0.0654 -0.2457
 9461SOL    HW129824   4.293   5.895  11.722 -0.1755  0.9103  1.4515
 9461SOL    HW229825   4.208   5.786  11.661  1.7081  0.7555 -1.0654
 9462SOL     OW29826   1.761   7.637   7.251 -0.3084  0.5635  0.3482
 9462SOL    HW129827   1.829   7.686   7.205  2.7951 -1.4401  2.3729
 9462SOL    HW229828   1.753   7.679   7.336  0.0130 -0.4529  0.9056
 9463SOL     OW29829   2.085   5.808  11.118 -0.0348 -0.8370  0.3755
 9463SOL    HW129830   2.039   5.868  11.060 -1.1561 -0.9859  1.0795
 9463SOL    HW229831   2.032   5.728  11.117  0.6856 -1.3292  0.5320
 9464SOL     OW29832   4.785   2.680   4.135  0.1638 -0.3757 -0.2700
 9464SOL    HW129833   4.721   2.709   4.200 -0.5995  0.8729 -1.5136
 9464SOL    HW229834   4.732   2.647   4.062  0.8252  1.6374 -1.7625
 9465SOL     OW29835   5.212   0.492   6.171 -0.4413 -0.1585  0.2638
 9465SOL    HW129836   5.179   0.450   6.092 -0.9423 -1.2129  1.0085
 9465SOL    HW229837   5.302   0.462   6.179 -0.7212 -0.9174  0.6581
 9466SOL     OW29838   1.609   7.122   2.502 -1.0181  0.0047 -0.1424
 9466SOL    HW129839   1.634   7.037   2.538 -4.1942 -1.5334 -1.2514
 9466SOL    HW229840   1.570   7.169   2.575  0.7693  0.6288  0.4787
 9467SOL     OW29841   3.262   4.531   8.668 -0.7384  0.6900 -0.1687
 9467SOL    HW129842   3.214   4.507   8.747 -0.5088 -0.6510 -0.4138
 9467SOL    HW229843   3.220   4.612   8.638 -1.1593  0.9336  1.0249
 9468SOL     OW29844   5.701   1.178   4.027  0.3863  0.0463  0.1502
 9468SOL    HW129845   5.656   1.262   4.026 -0.6231 -0.4525  1.4154
 9468SOL    HW229846   5.726   1.165   4.118  2.1901 -0.1930 -0.3438
 9469SOL     OW29847   5.522   3.602  11.870  0.3126 -0.6066  0.4580
 9469SOL    HW129848   5.614   3.628  11.872  0.5617 -1.4878  1.3845
 9469SOL    HW229849   5.474   3.684  11.883  0.9077  0.0292 -1.1720
 9470SOL     OW29850   3.430   3.811  11.335 -0.5117 -0.3925  0.0665
 9470SOL    HW129851   3.505   3.839  11.284 -0.6298 -0.0304  0.0895
 9470SOL    HW229852   3.440   3.716  11.344 -0.9583 -0.5968 -1.3826
 9471SOL     OW29853   4.165   4.967   6.589 -0.5235 -0.0756 -0.0307
 9471SOL    HW129854   4.109   4.889   6.591  1.0412 -1.3272 -1.9109
 9471SOL    HW229855   4.237   4.944   6.531  1.9398  1.5046  2.1519
 9472SOL     OW29856   1.063   5.178   0.884 -0.5878 -0.4679 -0.1673
 9472SOL    HW129857   0.967   5.183   0.888 -0.5820  0.9896 -0.9845
 9472SOL    HW229858   1.090   5.174   0.976 -1.4379 -1.2371  0.0639
 9473SOL     OW29859   4.130   7.289  11.519 -0.1843  0.2973 -0.3747
 9473SOL    HW129860   4.141   7.325  11.431 -1.0831 -0.1045 -0.6618
 9473SOL    HW229861   4.192   7.217  11.524 -0.5680 -0.0776 -0.9102
 9474SOL     OW29862   3.478   6.164   2.505 -0.8195  0.2425  0.4064
 9474SOL    HW129863   3.390   6.180   2.472 -0.6276 -1.2315 -0.9207
 9474SOL    HW229864   3.488   6.068   2.501  0.3259  0.2646  1.9138
 9475SOL     OW29865   3.203   7.061   9.411 -0.0730 -0.2724 -0.0558
 9475SOL    HW129866   3.232   7.148   9.385  0.4921 -0.7280 -1.0102
 9475SOL    HW229867   3.273   7.028   9.467  0.0962 -0.4239 -0.3552
 9476SOL     OW29868   6.595   2.305   6.943  0.0751 -0.1308  0.5596
 9476SOL    HW129869   6.573   2.339   7.030  2.0682 -0.5349  1.2656
 9476SOL    HW229870   6.661   2.366   6.909  0.9852 -1.2247  0.2946
 9477SOL     OW29871   2.527   7.895  11.379 -0.6785 -0.1054 -0.0529
 9477SOL    HW129872   2.547   7.925  11.290  0.4287 -1.5197 -0.3184
 9477SOL    HW229873   2.558   7.805  11.381 -1.0262 -0.2141  1.6678
 9478SOL     OW29874   7.193   1.290  11.322 -0.1071  0.3449  0.2848
 9478SOL    HW129875   7.235   1.376  11.326 -0.2846  0.4082  0.7458
 9478SOL    HW229876   7.246   1.242  11.258  0.5381  0.4990  0.6914
 9479SOL     OW29877   1.076   2.998   7.159  0.5076  0.6649  0.4103
 9479SOL    HW129878   1.038   3.035   7.079 -0.0257 -0.6571  0.0121
 9479SOL    HW229879   1.126   2.922   7.127 -0.2265 -0.2537  1.3787
 9480SOL     OW29880   1.909   4.135   9.195  0.2521  0.8172  0.0522
 9480SOL    HW129881   1.968   4.099   9.128 -0.1018 -0.4481  0.4090
 9480SOL    HW229882   1.844   4.067   9.209  0.2828  1.0823  1.6591
 9481SOL     OW29883   0.730   4.767  12.165  0.3771  0.3925  0.3938
 9481SOL    HW129884   0.709   4.860  12.156  0.6357  0.3646 -0.5111
 9481SOL    HW229885   0.673   4.723  12.103  1.0130  0.0418  0.0517
 9482SOL     OW29886   0.826   6.336   0.904 -0.0834  0.1060  0.0825
 9482SOL    HW129887   0.872   6.385   0.837  2.4285 -0.6235  1.1240
 9482SOL    HW229888   0.772   6.273   0.856 -1.1458  1.8977 -1.2036
 9483SOL     OW29889   6.059   2.103   7.361  0.0233  0.5979 -0.2595
 9483SOL    HW129890   6.147   2.069   7.350 -0.5843 -0.8574 -0.7990
 9483SOL    HW229891   6.060   2.145   7.447  0.7743 -0.8891  0.4817
 9484SOL     OW29892   3.817   2.278   7.442  0.2033 -0.5553  0.0100
 9484SOL    HW129893   3.796   2.302   7.533  0.9505 -0.3492  0.1341
 9484SOL    HW229894   3.770   2.342   7.389  0.2156 -0.3286  0.2719
 9485SOL     OW29895   7.524   0.110   1.769 -0.1308  0.2061 -0.4988
 9485SOL    HW129896   7.490   0.122   1.680  0.0622 -0.1801 -0.6237
 9485SOL    HW229897   7.551   0.198   1.796 -0.8539  0.4559 -0.5481
 9486SOL     OW29898   0.943   2.955   0.535  0.0332  0.0443 -0.6627
 9486SOL    HW129899   1.036   2.975   0.525  0.1604  0.1803  0.7052
 9486SOL    HW229900   0.919   2.914   0.452  1.8852 -2.1087 -0.2310
 9487SOL     OW29901   7.606   5.485   3.060 -0.1082  0.4400  0.1090
 9487SOL    HW129902   7.665   5.422   3.020  1.3625  1.5292  0.4484
 9487SOL    HW229903   7.549   5.514   2.989  2.0005  1.8308 -1.1193
 9488SOL     OW29904   5.772   4.153   1.245 -0.0043  0.0613  0.6152
 9488SOL    HW129905   5.747   4.063   1.264 -1.3489  0.0083 -1.1402
 9488SOL    HW229906   5.713   4.206   1.299 -0.9726 -0.1132 -0.2415
 9489SOL     OW29907   7.651   4.427   7.196  0.2411  0.0899 -0.1475
 9489SOL    HW129908   7.675   4.433   7.104 -0.9046  2.5419 -0.3540
 9489SOL    HW229909   7.698   4.498   7.239 -0.4771 -0.0046  0.8551
 9490SOL     OW29910   1.400   4.995  10.764  0.4330  0.3320  0.1008
 9490SOL    HW129911   1.439   4.912  10.792 -0.1936 -0.0375 -0.1122
 9490SOL    HW229912   1.451   5.020  10.687  0.2187 -0.1910 -0.2221
 9491SOL     OW29913   6.453   0.009   5.137  0.0148 -0.4598 -0.3056
 9491SOL    HW129914   6.371   0.032   5.179  1.6208  1.1728  2.1982
 9491SOL    HW229915   6.477   0.086   5.086  0.6168 -0.3941  0.0639
 9492SOL     OW29916   5.978   0.651   6.852 -0.6673  0.0358  0.1111
 9492SOL    HW129917   6.009   0.562   6.836 -0.3948  0.1503 -0.0137
 9492SOL    HW229918   5.951   0.683   6.766  2.3324  1.2288 -0.5240
 9493SOL     OW29919   5.957   1.000  10.977  0.9728  0.3188 -0.0253
 9493SOL    HW129920   5.960   1.040  10.890 -0.6154  0.7722  0.0995
 9493SOL    HW229921   6.015   1.055  11.030 -0.6496  2.1436 -0.0174
 9494SOL     OW29922   4.834   0.544   9.785  0.3128 -0.2424 -0.5327
 9494SOL    HW129923   4.872   0.624   9.747  2.4737 -0.9251  0.0471
 9494SOL    HW229924   4.906   0.481   9.783 -1.4840 -2.3900 -1.4869
 9495SOL     OW29925   5.439   7.729   5.463 -0.5359  0.3016  0.6494
 9495SOL    HW129926   5.440   7.785   5.541  2.5667 -0.6582  1.4434
 9495SOL    HW229927   5.480   7.783   5.395 -0.0270 -0.0580  0.6683
 9496SOL     OW29928   4.449   1.424   7.650 -0.3626  0.5731 -0.1582
 9496SOL    HW129929   4.418   1.414   7.740  0.2660 -1.1454 -0.0937
 9496SOL    HW229930   4.438   1.517   7.630 -1.1826  0.8407  1.4386
 9497SOL     OW29931   7.377   6.287   4.793  0.2173  0.5223  0.2295
 9497SOL    HW129932   7.356   6.372   4.831  0.6150  1.6076 -1.8388
 9497SOL    HW229933   7.314   6.275   4.722  1.8257  0.4048 -1.2569
 9498SOL     OW29934   7.752   7.761   7.122 -0.0242  0.0694 -0.3030
 9498SOL    HW129935   7.682   7.772   7.057  0.7134 -0.5362 -1.2276
 9498SOL    HW229936   7.791   7.847   7.131 -0.6836  0.3457 -0.0081
 9499SOL     OW29937   1.685   6.442   5.891  0.7526  0.0651  0.2893
 9499SOL    HW129938   1.774   6.428   5.923  0.9482 -1.0128 -0.6542
 9499SOL    HW229939   1.636   6.471   5.967  2.0078  1.1456  0.7328
 9500SOL     OW29940   6.594   3.582  10.141  0.2597  0.1407 -0.0445
 9500SOL    HW129941   6.606   3.592  10.236  1.1299 -0.3440 -0.0939
 9500SOL    HW229942   6.632   3.661  10.104 -0.9460  0.7910  0.0464
 9501SOL     OW29943   1.984   6.827   9.568 -0.4776  0.0883  0.6186
 9501SOL    HW129944   1.903   6.845   9.615  0.7890  0.2522  2.8973
 9501SOL    HW229945   2.053   6.852   9.629  1.3277  1.1731 -1.7193
 9502SOL     OW29946   4.378   6.252   1.020  0.2977 -0.2725  0.1800
 9502SOL    HW129947   4.462   6.239   1.065 -0.9859 -0.9473  2.5404
 9502SOL    HW229948   4.381   6.343   0.990  1.7069 -0.1461  0.6232
 9503SOL     OW29949   0.582   3.760   1.142  0.1434 -0.1951 -0.3756
 9503SOL    HW129950   0.528   3.764   1.064  1.0686  1.4208 -0.9659
 9503SOL    HW229951   0.592   3.666   1.159 -0.4710 -0.5652 -1.9087
 9504SOL     OW29952   0.843   1.561   8.008  0.3424 -0.7589 -0.2006
 9504SOL    HW129953   0.779   1.606   8.063  2.2452  0.9793  0.7366
 9504SOL    HW229954   0.876   1.490   8.062 -0.6908 -1.6303 -0.6692
 9505SOL     OW29955   3.450   5.241   3.072  0.1111 -0.8188 -0.2981
 9505SOL    HW129956   3.389   5.264   3.142  2.4037  1.4090  1.1093
 9505SOL    HW229957   3.443   5.313   3.009  0.8215 -0.8724 -0.4408
 9506SOL     OW29958   5.695   3.213   9.296 -0.4687 -0.7489 -0.9107
 9506SOL    HW129959   5.722   3.195   9.387 -0.1096 -1.5353 -1.1682
 9506SOL    HW229960   5.607   3.177   9.290 -0.1546 -1.4940 -1.1222
 9507SOL     OW29961   1.354   4.217   3.437  0.1700 -0.1671 -0.6589
 9507SOL    HW129962   1.278   4.257   3.394  1.4251  0.7764 -2.1096
 9507SOL    HW229963   1.420   4.287   3.440  1.3430 -1.2414 -0.3902
 9508SOL     OW29964   5.452   4.855  11.098  0.4255  0.5851 -0.4006
 9508SOL    HW129965   5.371   4.837  11.146  1.4804  0.0142  1.2647
 9508SOL    HW229966   5.423   4.878  11.010 -1.4430 -1.4604 -0.4076
 9509SOL     OW29967   5.424   6.451   4.154 -0.4384  0.1481  0.5048
 9509SOL    HW129968   5.458   6.380   4.210  0.9467  1.2587  1.1581
 9509SOL    HW229969   5.334   6.464   4.184 -0.7513 -1.3428  0.3290
 9510SOL     OW29970   3.705   5.109   9.479  0.1099  0.8232  0.1188
 9510SOL    HW129971   3.778   5.049   9.466  0.6187  1.8063 -2.0439
 9510SOL    HW229972   3.650   5.067   9.545  1.0595 -1.3837 -0.4247
 9511SOL     OW29973   7.808   2.902   2.429 -0.4950 -0.2020  0.0762
 9511SOL    HW129974   7.870   2.902   2.356  0.0609 -0.3080  0.5454
 9511SOL    HW229975   7.850   2.849   2.497  0.2688  2.0917  1.5192
 9512SOL     OW29976   0.050   5.214  12.133  0.3993  0.0808 -0.3515
 9512SOL    HW129977   0.072   5.142  12.073 -0.1040 -1.6670  1.4627
 9512SOL    HW229978  -0.044   5.208  12.145  0.5747 -0.0825  1.1509
 9513SOL     OW29979   1.759   3.047   2.393 -0.5168  0.4052 -0.5195
 9513SOL    HW129980   1.719   3.134   2.395  1.9371  1.6578  2.0609
 9513SOL    HW229981   1.718   3.000   2.466 -0.6362  0.0090 -0.8415
 9514SOL     OW29982   2.198   1.343   1.466 -0.2978 -0.1334 -0.2721
 9514SOL    HW129983   2.144   1.282   1.415 -0.4116  0.6894 -1.1496
 9514SOL    HW229984   2.138   1.380   1.531 -0.6465  0.3256 -0.8526
 9515SOL     OW29985   0.390   3.084   1.434  0.1107  0.6708  0.5636
 9515SOL    HW129986   0.419   2.993   1.421 -1.0112  0.1139  1.7983
 9515SOL    HW229987   0.367   3.089   1.527 -5.5000  0.4801 -0.5068
 9516SOL     OW29988   4.642   5.006   1.917  0.0069 -0.2572 -0.3490
 9516SOL    HW129989   4.553   4.996   1.883 -1.0359 -1.9310  2.4883
 9516SOL    HW229990   4.698   4.966   1.850 -1.2866  0.9430 -2.2528
 9517SOL     OW29991   1.249   4.156   8.289  0.0553 -0.2936  0.2725
 9517SOL    HW129992   1.215   4.123   8.372  1.7427 -1.0028  0.7101
 9517SOL    HW229993   1.278   4.245   8.309  0.1038 -0.3242  0.3383
 9518SOL     OW29994   4.708   7.748  11.130 -0.0607 -0.2319 -0.0920
 9518SOL    HW129995   4.778   7.689  11.104  0.9974  0.5705  0.7924
 9518SOL    HW229996   4.711   7.819  11.066  0.9788  0.5567  0.7776
 9519SOL     OW29997   5.845   4.132   4.173  0.2883  0.5748 -0.1734
 9519SOL    HW129998   5.785   4.170   4.109  0.5395 -0.1701 -0.8719
 9519SOL    HW229999   5.919   4.192   4.175  0.5477  0.2996 -1.0459
 9520SOL     OW30000   6.764   7.879   5.794 -0.2515  0.0205 -0.0634
 9520SOL    HW130001   6.846   7.860   5.840 -0.5772 -1.1195  0.0974
 9520SOL    HW230002   6.791   7.914   5.710  0.4524 -1.4642 -0.4944
 9521SOL     OW30003   4.343   1.316  11.009  0.6021  0.2077 -0.3425
 9521SOL    HW130004   4.265   1.296  11.060  1.3774  1.3475  1.3881
 9521SOL    HW230005   4.411   1.259  11.045  0.8040 -0.1011 -1.1882
 9522SOL     OW30006   3.828   4.888   6.772 -0.4596  0.3609 -0.1609
 9522SOL    HW130007   3.745   4.886   6.724  0.2459  1.5132 -1.5045
 9522SOL    HW230008   3.890   4.845   6.714  0.1269  0.5373  0.3287
 9523SOL     OW30009   2.885   4.401   6.855 -0.3138 -0.5334 -0.0720
 9523SOL    HW130010   2.958   4.393   6.916 -1.6170 -2.4166  1.3311
 9523SOL    HW230011   2.866   4.311   6.828 -1.7878 -0.0314 -0.8204
 9524SOL     OW30012   3.977   7.448   9.092 -0.3329 -0.2482  0.4471
 9524SOL    HW130013   4.020   7.366   9.069  0.1351  0.4172 -1.2078
 9524SOL    HW230014   4.031   7.485   9.162 -0.5625 -1.3241  1.2273
 9525SOL     OW30015   2.675   1.162   3.535  0.3521  0.3671  0.2145
 9525SOL    HW130016   2.618   1.237   3.551  1.7533  1.5144  0.0905
 9525SOL    HW230017   2.644   1.094   3.594 -1.2196  0.9003  0.0352
 9526SOL     OW30018   1.190   3.851   9.669 -0.0931  0.0243  0.5212
 9526SOL    HW130019   1.247   3.826   9.597  1.5839  0.5423  1.6216
 9526SOL    HW230020   1.137   3.923   9.634  1.3249  0.8717  0.0765
 9527SOL     OW30021   3.214   5.875   1.018  0.0364  0.3348  0.5035
 9527SOL    HW130022   3.243   5.794   1.060  0.7291  0.6897  0.7187
 9527SOL    HW230023   3.289   5.902   0.964 -0.3779  0.5616  0.0348
 9528SOL     OW30024   1.028   1.542   3.692 -0.0990 -0.2996 -0.6213
 9528SOL    HW130025   1.104   1.484   3.696 -1.0570 -1.5166  1.1690
 9528SOL    HW230026   1.040   1.603   3.765  0.1465  0.8412 -1.5795
 9529SOL     OW30027   3.030   1.273   4.887  0.2867  0.1815  0.1528
 9529SOL    HW130028   3.038   1.283   4.982  1.6760  1.5094 -0.0733
 9529SOL    HW230029   3.067   1.353   4.851  0.1400 -0.4693 -1.5396
 9530SOL     OW30030   2.041   7.394   3.194 -1.0276  0.0781  0.5773
 9530SOL    HW130031   2.089   7.397   3.277  3.0617  0.4114 -1.5465
 9530SOL    HW230032   2.040   7.301   3.170 -0.6624  0.1640  0.2217
 9531SOL     OW30033   2.374   5.625   3.364  0.2220 -0.5977 -0.2582
 9531SOL    HW130034   2.459   5.583   3.353  2.3469  2.9141  1.1336
 9531SOL    HW230035   2.319   5.557   3.404  3.7252 -1.8211  3.1456
 9532SOL     OW30036   2.017   7.137   7.233 -1.1134  0.0487 -0.3294
 9532SOL    HW130037   1.988   7.220   7.196 -2.3722  0.6271  1.7326
 9532SOL    HW230038   1.936   7.090   7.254 -0.5133 -0.2979  1.4237
 9533SOL     OW30039   3.543   2.816   2.258 -0.3580  0.2367 -0.0821
 9533SOL    HW130040   3.504   2.878   2.319  3.5539  1.2337  1.7019
 9533SOL    HW230041   3.575   2.870   2.186 -0.7469 -0.3228 -0.6873
 9534SOL     OW30042   3.398   2.171   4.026  0.7939 -0.1962  0.3826
 9534SOL    HW130043   3.468   2.235   4.016  0.2285  0.1873 -1.5880
 9534SOL    HW230044   3.351   2.199   4.105  1.5557  0.8078  0.5016
 9535SOL     OW30045   2.499   5.456  10.117 -0.3505  0.5292 -0.3886
 9535SOL    HW130046   2.423   5.498  10.158  0.5933 -0.3693  2.4944
 9535SOL    HW230047   2.574   5.499  10.156  0.6182 -1.0585 -0.4142
 9536SOL     OW30048   3.782   0.681   9.819  0.3432 -0.1428 -0.1489
 9536SOL    HW130049   3.840   0.756   9.834  1.5690 -1.5789  3.2213
 9536SOL    HW230050   3.701   0.704   9.863  0.1953 -0.2389 -0.3665
 9537SOL     OW30051   0.188   4.791   6.602 -0.1186  0.2168 -0.0452
 9537SOL    HW130052   0.225   4.708   6.573 -0.4485 -0.6867  1.9547
 9537SOL    HW230053   0.138   4.769   6.681 -2.2656  1.9096 -0.8202
 9538SOL     OW30054   3.923   6.646  11.895  0.1691  0.0784 -0.0572
 9538SOL    HW130055   3.942   6.724  11.948 -2.9200 -0.0038  1.3756
 9538SOL    HW230056   3.906   6.679  11.807  2.5049  0.5361 -0.3982
 9539SOL     OW30057   7.461   3.165   0.458 -0.5179  0.7136  0.3546
 9539SOL    HW130058   7.377   3.176   0.502 -1.6570  0.1338 -1.5371
 9539SOL    HW230059   7.513   3.241   0.485 -1.4693  0.8428  1.9092
 9540SOL     OW30060   4.136   2.512  10.411  0.0046  0.0181 -0.3800
 9540SOL    HW130061   4.183   2.570  10.351 -2.1944 -0.6790 -2.9745
 9540SOL    HW230062   4.105   2.569  10.481  2.2651  0.9496 -0.0681
 9541SOL     OW30063   2.422   1.692   5.953 -0.1683 -0.3072 -0.1920
 9541SOL    HW130064   2.334   1.715   5.984 -0.4604 -0.2900 -1.0042
 9541SOL    HW230065   2.452   1.626   6.016 -0.5804  0.0104  0.3501
 9542SOL     OW30066   1.585   4.115   9.447 -0.4310  0.0695 -0.3038
 9542SOL    HW130067   1.636   4.076   9.376  1.9071 -0.2292  1.3910
 9542SOL    HW230068   1.578   4.044   9.512 -0.6453  0.9254  0.6303
 9543SOL     OW30069   7.127   2.107   0.339  0.0418  0.1990 -0.5020
 9543SOL    HW130070   7.158   2.017   0.331  1.9593  0.6499  1.2746
 9543SOL    HW230071   7.201   2.156   0.375 -0.2285  2.9634 -3.2553
 9544SOL     OW30072   2.107   7.334   9.998 -0.2529  0.1135  0.0665
 9544SOL    HW130073   2.068   7.319  10.084  0.3766  0.9974  0.5167
 9544SOL    HW230074   2.103   7.249   9.955  0.4773 -0.6289  1.4053
 9545SOL     OW30075   3.651   0.128   4.752 -0.4083 -0.8133  1.1705
 9545SOL    HW130076   3.657   0.059   4.818 -0.6477 -0.5951  1.4240
 9545SOL    HW230077   3.623   0.206   4.801  0.5649 -0.3538  1.0099
 9546SOL     OW30078   2.129   1.834   9.244  0.4778 -0.2417  0.0059
 9546SOL    HW130079   2.198   1.893   9.216  0.6669 -0.5829 -0.2517
 9546SOL    HW230080   2.174   1.765   9.293  0.2470 -0.1178  0.3974
 9547SOL     OW30081   0.050   5.338   6.291 -0.0585 -0.4582 -0.3167
 9547SOL    HW130082   0.025   5.299   6.374  0.0920 -1.9360 -0.9241
 9547SOL    HW230083   0.039   5.267   6.227 -1.9036  1.1260 -1.8776
 9548SOL     OW30084   0.771   7.016   1.470 -0.1416  0.6391 -0.0525
 9548SOL    HW130085   0.731   7.033   1.384  0.2831  0.2740 -0.3329
 9548SOL    HW230086   0.865   7.009   1.451 -0.0426  0.5922  0.4500
 9549SOL     OW30087   6.383   2.248   9.144  0.4749  0.2726 -0.0154
 9549SOL    HW130088   6.376   2.199   9.227 -0.4921 -0.7482 -0.6754
 9549SOL    HW230089   6.303   2.226   9.097  1.8819 -0.7129 -2.0548
 9550SOL     OW30090   5.084   2.994   5.331  0.0569  0.0078 -0.4052
 9550SOL    HW130091   5.036   2.934   5.274 -1.3187  0.0832  0.6284
 9550SOL    HW230092   5.062   2.965   5.419 -0.5398  1.9537  0.1141
 9551SOL     OW30093   2.809   0.282  12.142  0.1427 -0.2996  0.0669
 9551SOL    HW130094   2.904   0.272  12.147  0.0971 -0.4185  0.8510
 9551SOL    HW230095   2.795   0.344  12.071  0.8725  0.7790  0.8389
 9552SOL     OW30096   5.638   1.125  10.219  0.6143 -0.4213  0.4053
 9552SOL    HW130097   5.571   1.178  10.261  0.0877  0.1989 -1.1367
 9552SOL    HW230098   5.621   1.036  10.251 -0.7291 -0.2217  0.3129
 9553SOL     OW30099   6.085   0.875   2.837  0.4471 -0.1650  0.1363
 9553SOL    HW130100   6.113   0.880   2.929  0.5292  0.3097  0.0884
 9553SOL    HW230101   6.151   0.926   2.790 -0.8361  1.5567  0.0953
 9554SOL     OW30102   4.332   7.928   5.758  0.2029 -0.0914 -0.5954
 9554SOL    HW130103   4.317   8.022   5.766  0.8235 -0.1069  1.3737
 9554SOL    HW230104   4.287   7.903   5.678  0.5585  1.9789 -1.4984
 9555SOL     OW30105   5.809   5.049   6.308  0.0708 -1.0685 -0.2742
 9555SOL    HW130106   5.773   4.965   6.279 -0.7665 -0.7643 -0.1336
 9555SOL    HW230107   5.830   5.096   6.227 -1.3450 -0.6158 -0.4054
 9556SOL     OW30108   7.815   4.945   8.502  0.3126 -0.6227 -0.2971
 9556SOL    HW130109   7.878   4.877   8.481 -0.1106 -1.2258  0.3127
 9556SOL    HW230110   7.860   5.001   8.565  0.9036  0.0804 -1.3137
 9557SOL     OW30111   0.171   5.435   8.910 -0.0821 -0.4340 -0.6805
 9557SOL    HW130112   0.113   5.510   8.912  0.7942  0.2523 -0.0498
 9557SOL    HW230113   0.131   5.372   8.970 -0.5016 -0.2227 -0.7363
 9558SOL     OW30114   4.504   7.093   6.658  0.2264 -0.3187  0.6213
 9558SOL    HW130115   4.585   7.064   6.702  1.2502  1.7872  0.2272
 9558SOL    HW230116   4.474   7.015   6.611  2.2013 -1.1008  0.5300
 9559SOL     OW30117   5.706   5.862   9.069 -0.1943 -0.3861 -0.5759
 9559SOL    HW130118   5.798   5.845   9.088 -0.1869 -0.8359 -0.9922
 9559SOL    HW230119   5.668   5.775   9.057 -0.1343 -0.1505 -2.9334
 9560SOL     OW30120   6.421   1.926   2.348  0.0405  0.0478 -0.5543
 9560SOL    HW130121   6.377   1.928   2.433 -0.6059 -0.7212 -0.8564
 9560SOL    HW230122   6.421   1.833   2.324  0.1534  0.2685 -1.4280
 9561SOL     OW30123   4.510   3.603   0.928 -0.4282  0.6382 -0.7716
 9561SOL    HW130124   4.421   3.590   0.896 -0.7451 -0.8924  0.6114
 9561SOL    HW230125   4.542   3.515   0.947  0.6966  1.2881  0.5150
 9562SOL     OW30126   6.621   0.332   2.715  0.1183 -0.4181 -0.7311
 9562SOL    HW130127   6.702   0.371   2.682  1.5242 -2.6190 -0.0988
 9562SOL    HW230128   6.625   0.241   2.685 -2.4380 -0.4426 -1.1663
 9563SOL     OW30129   7.667   6.887   7.046  0.0735 -0.0935 -0.1709
 9563SOL    HW130130   7.681   6.793   7.038  2.1976  0.1065  0.7248
 9563SOL    HW230131   7.658   6.902   7.140  1.9303  0.8348 -0.1070
 9564SOL     OW30132   1.786   2.049  11.154  0.0818 -0.1839 -0.1681
 9564SOL    HW130133   1.856   2.023  11.213 -1.7031 -1.9576  1.3089
 9564SOL    HW230134   1.731   2.108  11.206  0.4287  1.1871 -1.2961
 9565SOL     OW30135   2.785   5.550   9.859  0.3714  0.0334  0.3920
 9565SOL    HW130136   2.694   5.576   9.843  1.0793  2.6778  0.2441
 9565SOL    HW230137   2.835   5.593   9.789  1.6209 -2.8711 -0.6666
 9566SOL     OW30138   1.988   2.952  11.236  0.0796 -0.3199  0.6179
 9566SOL    HW130139   2.057   2.928  11.174 -1.4287  0.2776 -1.4398
 9566SOL    HW230140   1.907   2.943  11.185 -1.4315 -1.4595  3.0563
 9567SOL     OW30141   0.541   6.371   1.152 -0.1066 -0.1881 -0.2012
 9567SOL    HW130142   0.603   6.431   1.195  1.1454 -1.1010 -0.6637
 9567SOL    HW230143   0.525   6.411   1.067 -0.0258 -0.0291 -0.1450
 9568SOL     OW30144   7.080   0.108   0.986  0.3020 -0.6466 -0.0411
 9568SOL    HW130145   7.055   0.016   0.987  0.0989 -0.5870  1.0148
 9568SOL    HW230146   7.091   0.128   0.893 -1.5253 -1.2291 -0.4239
 9569SOL     OW30147   5.772   3.910   6.543 -0.3807  0.1135  0.0792
 9569SOL    HW130148   5.692   3.868   6.575  0.8222 -1.4888  1.1824
 9569SOL    HW230149   5.840   3.880   6.603  1.2238  0.6566 -1.3882
 9570SOL     OW30150   5.323   1.737   7.826 -0.0635 -0.2690  0.0450
 9570SOL    HW130151   5.369   1.816   7.855  2.2441 -1.1773 -0.8896
 9570SOL    HW230152   5.298   1.756   7.735 -0.1393 -0.3446  0.0499
 9571SOL     OW30153   4.118   2.964   4.822 -0.0042 -0.2240 -0.1696
 9571SOL    HW130154   4.147   2.948   4.732 -1.0146 -3.9814 -0.0098
 9571SOL    HW230155   4.038   3.016   4.813 -1.4924 -2.5685 -1.7702
 9572SOL     OW30156   5.263   5.517   3.520 -0.1715 -0.1759  0.3521
 9572SOL    HW130157   5.225   5.599   3.552  1.2449  0.4573  0.5390
 9572SOL    HW230158   5.294   5.473   3.599  0.7630  0.0248  0.1114
 9573SOL     OW30159   6.751   7.360   6.553  0.6786 -0.1374  0.7112
 9573SOL    HW130160   6.770   7.428   6.489 -0.6229 -0.3310  0.0958
 9573SOL    HW230161   6.771   7.278   6.508  1.4770 -0.2156  1.1803
 9574SOL     OW30162   5.025   3.725  11.384  0.0409 -0.1183  0.1787
 9574SOL    HW130163   5.039   3.649  11.441  1.4765 -0.0777 -0.0673
 9574SOL    HW230164   4.993   3.793  11.443 -1.4074 -0.9446  0.3779
 9575SOL     OW30165   4.306   3.328  10.232 -0.3179 -0.1727  0.0619
 9575SOL    HW130166   4.371   3.290  10.173  0.1236  0.3742  0.1797
 9575SOL    HW230167   4.317   3.423  10.221 -1.8553 -0.0602 -0.7419
 9576SOL     OW30168   6.089   7.422   3.259  0.1672  0.2955  0.0888
 9576SOL    HW130169   6.011   7.434   3.314 -1.2310  0.6267 -1.8663
 9576SOL    HW230170   6.161   7.452   3.314 -1.3052  1.7892  1.3225
 9577SOL     OW30171   5.146   5.908   4.184 -0.0029 -0.1055 -0.0694
 9577SOL    HW130172   5.221   5.956   4.149  0.2271  1.1577  1.9700
 9577SOL    HW230173   5.071   5.963   4.165  0.1330  0.6255  1.3735
 9578SOL     OW30174   5.543   5.490   4.678 -0.4281 -0.0210 -0.2220
 9578SOL    HW130175   5.486   5.489   4.601 -1.9395 -0.0687  0.8488
 9578SOL    HW230176   5.500   5.431   4.740  1.1179 -0.5199  0.4354
 9579SOL     OW30177   6.337   7.290   3.075 -0.4595  0.7931  0.2500
 9579SOL    HW130178   6.417   7.340   3.061 -0.2175 -0.2164 -2.3506
 9579SOL    HW230179   6.343   7.217   3.015 -2.8312  0.0466  0.8213
 9580SOL     OW30180   7.010   5.409  10.929  0.0329  0.1181  0.5050
 9580SOL    HW130181   7.059   5.327  10.921  1.0141  0.4794  2.2340
 9580SOL    HW230182   7.076   5.473  10.957 -0.5980  1.6592 -1.3636
 9581SOL     OW30183   2.851   0.174   6.862 -0.4986  0.1017 -0.0257
 9581SOL    HW130184   2.858   0.243   6.796 -1.5305 -0.4589 -0.7449
 9581SOL    HW230185   2.882   0.215   6.942 -4.5174  2.7192  0.4879
 9582SOL     OW30186   2.323   5.952   6.179  0.2235 -0.1411  0.0730
 9582SOL    HW130187   2.228   5.967   6.178  0.4102  1.3764 -1.4103
 9582SOL    HW230188   2.333   5.857   6.176 -1.3137 -0.3083 -2.0085
 9583SOL     OW30189   4.655   7.232  11.252  0.1758 -0.7086 -0.1057
 9583SOL    HW130190   4.577   7.199  11.295  0.2491 -0.9162 -0.1265
 9583SOL    HW230191   4.631   7.240  11.160 -0.0840  0.0584  0.0213
 9584SOL     OW30192   5.190   2.938   4.508 -0.0545 -0.2564  0.7021
 9584SOL    HW130193   5.209   2.917   4.416 -0.6729 -0.4633  0.6163
 9584SOL    HW230194   5.104   2.899   4.524  0.2336 -0.5676  1.4954
 9585SOL     OW30195   7.919   6.134   4.006  0.5338  0.2465 -0.4183
 9585SOL    HW130196   8.013   6.132   4.024  0.6849  0.4595 -1.1303
 9585SOL    HW230197   7.904   6.220   3.965  0.1982 -0.1466 -1.1456
 9586SOL     OW30198   0.920   4.447   9.962 -0.3634 -0.3069  0.6882
 9586SOL    HW130199   0.840   4.487   9.997 -0.3494 -0.3011  0.7138
 9586SOL    HW230200   0.942   4.379  10.026  0.8890  1.1294  1.8726
 9587SOL     OW30201   5.564   3.966   0.316  0.7265 -0.4012 -0.0650
 9587SOL    HW130202   5.510   3.912   0.374  1.4134 -0.1456  0.8401
 9587SOL    HW230203   5.502   4.024   0.272  0.1974 -0.5172  0.5148
 9588SOL     OW30204   0.554   3.448  11.512  0.0513  0.0756 -0.0606
 9588SOL    HW130205   0.560   3.542  11.494 -1.1196  0.0385 -0.7239
 9588SOL    HW230206   0.644   3.421  11.528  0.4492  1.2349 -0.2505
 9589SOL     OW30207   6.948   3.379   7.117 -0.4667  0.0332  0.0504
 9589SOL    HW130208   6.991   3.354   7.035  1.5706 -1.7418  1.5386
 9589SOL    HW230209   6.896   3.302   7.140 -1.2135  0.6125  0.3389
 9590SOL     OW30210   4.729   4.555  11.374 -0.2297 -0.4056 -0.1296
 9590SOL    HW130211   4.781   4.494  11.426  1.3471  1.3275  0.4395
 9590SOL    HW230212   4.646   4.563  11.422  0.7880  0.3265  1.6074
 9591SOL     OW30213   0.930   2.781  11.358  0.2188 -0.3071 -0.1097
 9591SOL    HW130214   0.965   2.840  11.292 -1.9075  0.1253 -0.9239
 9591SOL    HW230215   0.922   2.834  11.437 -1.4029  0.4818 -0.7574
 9592SOL     OW30216   4.919   7.840   5.485  0.6054  0.1496  0.3826
 9592SOL    HW130217   4.824   7.838   5.474  0.6823  0.1096 -0.2729
 9592SOL    HW230218   4.949   7.758   5.446  0.9898  0.5380 -0.1407
 9593SOL     OW30219   2.915   7.852   8.044 -0.6595  0.3351  0.1490
 9593SOL    HW130220   2.869   7.768   8.042 -0.8752  0.4553 -1.4680
 9593SOL    HW230221   2.982   7.845   7.975 -0.6581  1.4685  0.0091
 9594SOL     OW30222   1.389   7.908  11.352  0.5282 -0.6000 -0.1532
 9594SOL    HW130223   1.445   7.985  11.354  1.1856 -1.0718  0.8944
 9594SOL    HW230224   1.440   7.843  11.303 -1.0876  0.3359 -3.3802
 9595SOL     OW30225   7.944   1.852   3.509 -0.3777 -0.2444 -0.3742
 9595SOL    HW130226   8.032   1.850   3.546 -0.3617 -1.6393 -0.4159
 9595SOL    HW230227   7.957   1.874   3.417 -0.2487  1.2958 -0.0186
 9596SOL     OW30228   7.029   2.942   4.816 -0.1127  0.1659 -0.1590
 9596SOL    HW130229   6.997   2.981   4.897  0.4799 -3.3698  2.0368
 9596SOL    HW230230   7.117   2.977   4.805  0.1434  0.0183  1.2960
 9597SOL     OW30231   2.342   1.586  10.298 -0.0441  0.3023 -0.1754
 9597SOL    HW130232   2.303   1.609  10.213  0.3127 -0.1470 -0.4572
 9597SOL    HW230233   2.296   1.643  10.360 -0.8710  0.0784 -0.5568
 9598SOL     OW30234   5.535   5.662   5.073 -0.2402  0.6546  0.6213
 9598SOL    HW130235   5.525   5.758   5.073 -0.3323  0.7181 -2.0322
 9598SOL    HW230236   5.618   5.647   5.029 -0.4365 -0.5015  0.6246
 9599SOL     OW30237   0.740   6.637   4.686  0.0970  0.0288 -1.0167
 9599SOL    HW130238   0.719   6.717   4.638  0.8550  1.0730  0.3044
 9599SOL    HW230239   0.660   6.615   4.733 -0.1589 -0.0938 -1.5018
 9600SOL     OW30240   5.745   2.138  12.141  0.4097  0.5986  0.3460
 9600SOL    HW130241   5.772   2.051  12.110  2.0867  1.5518 -1.0689
 9600SOL    HW230242   5.822   2.193  12.127 -0.8937  2.5175  0.3515
 9601SOL     OW30243   7.837   5.436  10.132 -0.3463 -0.1622 -0.1017
 9601SOL    HW130244   7.792   5.471  10.055  0.9685  1.9122  0.0170
 9601SOL    HW230245   7.918   5.398  10.097  1.0057  2.1558  0.3365
 9602SOL     OW30246   1.118   6.537   5.209  0.5400  0.0356 -0.0385
 9602SOL    HW130247   1.180   6.564   5.277  0.2534 -0.3413  0.3732
 9602SOL    HW230248   1.124   6.606   5.143  2.5560 -0.7465 -0.7646
 9603SOL     OW30249   3.853   4.580  11.852 -0.4268  0.0703 -0.7265
 9603SOL    HW130250   3.816   4.596  11.939  0.5403  3.8768 -0.8401
 9603SOL    HW230251   3.933   4.530  11.869  0.4840  1.9355  0.8052
 9604SOL     OW30252   2.144   6.741  11.110  0.1529  0.1119 -0.7035
 9604SOL    HW130253   2.054   6.772  11.101 -0.2237 -0.5598  0.4760
 9604SOL    HW230254   2.136   6.646  11.118  0.9401  0.0667 -0.3317
 9605SOL     OW30255   3.663   0.753   8.912 -0.3836 -0.2389 -0.5587
 9605SOL    HW130256   3.659   0.668   8.868  1.2925 -0.4831 -0.3134
 9605SOL    HW230257   3.728   0.741   8.982 -2.4047  0.3441  1.5542
 9606SOL     OW30258   1.663   2.734   9.620  0.2241 -0.1820 -0.1890
 9606SOL    HW130259   1.685   2.712   9.710 -2.0022  2.9703  1.2873
 9606SOL    HW230260   1.733   2.792   9.592 -0.5197  1.1274  0.5929
 9607SOL     OW30261   1.922   7.900   6.543  0.2430  0.4843 -0.4065
 9607SOL    HW130262   1.847   7.948   6.509 -0.6685  0.1152  0.9718
 9607SOL    HW230263   1.978   7.967   6.581 -0.6300  0.5835  0.7789
 9608SOL     OW30264   4.184   0.097   8.366  0.6259  0.4201 -0.1999
 9608SOL    HW130265   4.190   0.062   8.455  0.2372  2.8708  0.8599
 9608SOL    HW230266   4.167   0.019   8.312  1.4532 -1.2200  1.7491
 9609SOL     OW30267   4.256   2.171   4.151  0.0297 -0.2445  0.4291
 9609SOL    HW130268   4.208   2.209   4.078 -0.3008  1.1840  1.3586
 9609SOL    HW230269   4.225   2.080   4.155 -1.6306  0.2778  0.2043
 9610SOL     OW30270   5.249   5.356   5.806 -0.1444 -0.6449  0.2163
 9610SOL    HW130271   5.170   5.360   5.752 -1.1463 -2.4444  1.4245
 9610SOL    HW230272   5.245   5.435   5.859 -0.4420 -0.0846 -0.6127
 9611SOL     OW30273   7.547   6.538  10.340 -0.4754 -0.4161  0.0442
 9611SOL    HW130274   7.495   6.584  10.275 -1.8997 -1.9221  0.0457
 9611SOL    HW230275   7.534   6.587  10.421 -0.9594 -0.1082 -0.2155
 9612SOL     OW30276   0.425   7.147   4.102 -0.5017 -0.0896  0.1174
 9612SOL    HW130277   0.490   7.212   4.075  2.3409 -2.4397  0.7626
 9612SOL    HW230278   0.383   7.118   4.021  1.3945 -0.5674 -0.7362
 9613SOL     OW30279   2.758   0.747   8.951  0.5518  0.1252 -0.1429
 9613SOL    HW130280   2.675   0.776   8.913  0.3516  0.3907  0.4768
 9613SOL    HW230281   2.739   0.663   8.991  0.7872 -0.2026 -0.7138
 9614SOL     OW30282   4.405   4.160   2.673  0.0094  0.1770  0.2196
 9614SOL    HW130283   4.313   4.186   2.668 -0.2335 -0.8123 -1.2183
 9614SOL    HW230284   4.403   4.072   2.711  0.1996 -0.4087 -1.0467
 9615SOL     OW30285   4.695   0.899   8.095 -0.3852 -0.5180  0.0989
 9615SOL    HW130286   4.641   0.833   8.138 -1.0612 -1.0137 -1.4154
 9615SOL    HW230287   4.721   0.958   8.165  0.3514 -2.4374  1.5325
 9616SOL     OW30288   1.318   2.320   0.298  0.3329  0.3253  0.4283
 9616SOL    HW130289   1.343   2.383   0.365 -1.1330  0.2946  1.0419
 9616SOL    HW230290   1.225   2.337   0.283  0.5463  0.1146 -1.3794
 9617SOL     OW30291   4.356   0.375   8.589 -0.4939  0.0399 -0.1159
 9617SOL    HW130292   4.422   0.444   8.584 -2.3088  1.7962 -1.6153
 9617SOL    HW230293   4.385   0.309   8.525  0.0481  0.5431 -0.3987
 9618SOL     OW30294   3.051   1.282   0.190  0.5799 -0.4782 -0.2103
 9618SOL    HW130295   3.121   1.219   0.203 -0.6402 -1.4843  2.0364
 9618SOL    HW230296   2.972   1.237   0.221 -0.4723  1.8450  0.7410
 9619SOL     OW30297   6.974   1.167   4.001 -0.9640 -0.4840 -0.6553
 9619SOL    HW130298   6.899   1.146   4.056 -0.6375  2.1073  0.9684
 9619SOL    HW230299   7.050   1.154   4.058 -0.2702 -1.5962 -1.7924
 9620SOL     OW30300   2.540   2.993   3.364  0.1828  0.0576  0.3781
 9620SOL    HW130301   2.616   2.940   3.389  0.3102  0.6996  1.4089
 9620SOL    HW230302   2.528   3.054   3.436 -0.4750  0.8935 -0.4130
 9621SOL     OW30303   0.087   2.399   6.721 -0.3577  0.1625  0.2322
 9621SOL    HW130304  -0.009   2.398   6.724 -0.3744  1.1870  0.7752
 9621SOL    HW230305   0.111   2.465   6.787  0.6996  0.2827 -0.2626
 9622SOL     OW30306   6.029   6.743   8.699 -0.5139  0.1700 -0.2686
 9622SOL    HW130307   6.054   6.697   8.780  2.3648 -0.9851 -1.6858
 9622SOL    HW230308   5.991   6.674   8.644  1.9226 -0.2106 -1.6184
 9623SOL     OW30309   4.707   5.747   4.497 -0.1741 -0.5491 -0.2176
 9623SOL    HW130310   4.648   5.777   4.567  0.9517  0.6356  0.2771
 9623SOL    HW230311   4.793   5.784   4.521  0.9557 -2.8026 -0.5132
 9624SOL     OW30312   0.143   0.481   8.867 -0.6108 -0.0235 -0.2967
 9624SOL    HW130313   0.237   0.492   8.880 -0.7215 -0.1434  0.6364
 9624SOL    HW230314   0.136   0.422   8.792  0.0376  0.9334 -1.1389
 9625SOL     OW30315   3.488   3.628  10.595 -0.6245 -0.2485 -0.2865
 9625SOL    HW130316   3.481   3.642  10.689  0.1170 -0.2457 -0.2231
 9625SOL    HW230317   3.538   3.546  10.587 -2.0280 -1.1111 -0.6744
 9626SOL     OW30318   4.412   3.629   2.107 -0.5696 -0.2619  0.3164
 9626SOL    HW130319   4.472   3.629   2.182  0.2462  3.0597 -0.1778
 9626SOL    HW230320   4.462   3.591   2.035 -0.6236 -1.4951  0.9038
 9627SOL     OW30321   7.829   5.772   4.716  0.2764 -0.0816 -0.8902
 9627SOL    HW130322   7.870   5.762   4.802 -0.6139  1.5545 -0.2333
 9627SOL    HW230323   7.902   5.786   4.656  0.8008  1.8811  0.1196
 9628SOL     OW30324   4.265   3.290   7.322  0.4711  0.6209  0.1433
 9628SOL    HW130325   4.189   3.346   7.303 -0.5848 -0.9420 -0.3709
 9628SOL    HW230326   4.338   3.334   7.277 -0.5210  1.0614 -1.0982
 9629SOL     OW30327   6.575   2.048   6.932 -0.7445  0.1807 -0.1211
 9629SOL    HW130328   6.642   2.032   6.866 -0.3513 -0.8675  0.4988
 9629SOL    HW230329   6.568   2.143   6.937  0.2573  0.2951 -0.6418
 9630SOL     OW30330   6.037   6.235   4.091 -0.5905  0.1149 -0.8150
 9630SOL    HW130331   6.057   6.142   4.083  0.1010 -0.0539  1.9240
 9630SOL    HW230332   5.955   6.238   4.140 -0.3545  0.9632 -0.4551
 9631SOL     OW30333   3.940   3.784   0.670 -0.3313  0.1229  1.0334
 9631SOL    HW130334   4.014   3.727   0.651  0.1389  1.3046 -0.9286
 9631SOL    HW230335   3.887   3.735   0.733  0.2114 -2.3329 -0.3197
 9632SOL     OW30336   5.093   0.307  12.156  0.4241  0.2145 -0.3488
 9632SOL    HW130337   5.014   0.279  12.110  0.0751  1.4221 -0.5189
 9632SOL    HW230338   5.099   0.249  12.232 -0.8637  0.3748 -0.1028
 9633SOL     OW30339   5.517   4.371   1.365  0.4632 -0.0212  0.3345
 9633SOL    HW130340   5.583   4.409   1.423 -0.0110  2.5258 -0.6510
 9633SOL    HW230341   5.436   4.417   1.387 -0.5629 -1.6648  0.1486
 9634SOL     OW30342   3.810   4.595   0.462 -0.1817 -0.0255  0.2378
 9634SOL    HW130343   3.761   4.657   0.408 -2.1984 -1.0635  0.7651
 9634SOL    HW230344   3.849   4.534   0.399  0.1808  0.6224 -0.1772
 9635SOL     OW30345   6.890   4.915   5.546 -0.1166  0.0656  0.0921
 9635SOL    HW130346   6.922   4.993   5.500 -1.5450  0.1645 -0.7948
 9635SOL    HW230347   6.794   4.921   5.539 -0.2542 -1.7272  0.0889
 9636SOL     OW30348   4.557   7.246   7.011  0.0254 -0.4571  0.2214
 9636SOL    HW130349   4.626   7.266   7.074  1.0563 -0.3064 -0.9437
 9636SOL    HW230350   4.596   7.182   6.952 -0.5948  0.1579 -0.8741
 9637SOL     OW30351   2.518   7.003   4.049  0.0408 -0.1294  0.1461
 9637SOL    HW130352   2.467   7.074   4.010  0.0739 -1.1318 -1.8705
 9637SOL    HW230353   2.453   6.937   4.073  0.2121 -0.6978 -0.8780
 9638SOL     OW30354   6.913   4.489   1.801 -0.0508  0.3721  0.3352
 9638SOL    HW130355   6.951   4.577   1.796 -1.0126  1.0147  2.8981
 9638SOL    HW230356   6.989   4.430   1.800  0.6972  1.3120  0.1358
 9639SOL     OW30357   3.283   5.525   7.885 -0.0658 -0.0669 -0.3252
 9639SOL    HW130358   3.282   5.557   7.975 -0.3548  1.1274 -0.7310
 9639SOL    HW230359   3.198   5.483   7.873 -0.8401  1.5151 -0.6188
 9640SOL     OW30360   7.053   0.817  10.612  0.0811  0.1010 -0.5628
 9640SOL    HW130361   7.105   0.866  10.677 -0.1016  1.3804 -1.3456
 9640SOL    HW230362   7.064   0.726  10.637  0.7319  0.5087  0.7471
 9641SOL     OW30363   4.425   2.535   4.349  0.5692 -0.4857 -0.6913
 9641SOL    HW130364   4.476   2.612   4.374 -0.2402  0.1847 -1.0680
 9641SOL    HW230365   4.430   2.532   4.253 -0.4883 -0.1180 -0.7745
 9642SOL     OW30366   2.907   1.037   1.862 -0.0913 -0.4570 -0.3056
 9642SOL    HW130367   2.922   1.090   1.784 -1.9227 -1.1818 -1.2075
 9642SOL    HW230368   2.977   1.062   1.922  0.0492  1.7665 -1.3097
 9643SOL     OW30369   1.805   5.198   0.652  0.0258 -0.4497  0.3053
 9643SOL    HW130370   1.768   5.115   0.681  0.6402 -0.7819  0.1569
 9643SOL    HW230371   1.896   5.196   0.681 -0.4131  0.9636  1.9139
 9644SOL     OW30372   4.971   3.284   8.845  0.2978  0.0957 -0.2743
 9644SOL    HW130373   5.058   3.279   8.885 -0.5759 -2.0542  1.5506
 9644SOL    HW230374   4.918   3.330   8.910  0.1091  1.8456 -1.5919
 9645SOL     OW30375   4.392   6.675  11.277  0.1557  0.3719 -0.0158
 9645SOL    HW130376   4.337   6.675  11.199 -0.0308 -1.8389  0.0506
 9645SOL    HW230377   4.331   6.673  11.350  0.3382  0.9215  0.1611
 9646SOL     OW30378   5.454   7.208   2.031  0.4420 -0.4115  0.3291
 9646SOL    HW130379   5.389   7.251   2.086 -0.2498 -1.5728  0.4491
 9646SOL    HW230380   5.455   7.260   1.950  1.6559  1.4697  1.4647
 9647SOL     OW30381   2.373   3.600   3.432 -0.6268  0.4973 -0.5465
 9647SOL    HW130382   2.323   3.519   3.441 -0.6596  0.3356 -1.9988
 9647SOL    HW230383   2.307   3.666   3.409 -0.3578  0.5490 -1.1820
 9648SOL     OW30384   3.487   1.811   1.007 -0.7069 -0.5340  0.1935
 9648SOL    HW130385   3.463   1.747   0.941 -1.8770 -0.9532  0.9944
 9648SOL    HW230386   3.561   1.771   1.053 -0.3567 -0.5575 -0.3793
 9649SOL     OW30387   2.365   5.748   4.854  0.6680 -0.2949 -0.2756
 9649SOL    HW130388   2.273   5.773   4.857  0.9774  0.8755  0.6375
 9649SOL    HW230389   2.374   5.679   4.920  0.7130  0.6560  0.7409
 9650SOL     OW30390   2.477   2.967   7.470 -0.4375 -0.5341  0.4764
 9650SOL    HW130391   2.402   3.009   7.428 -1.1550 -2.5054 -0.3639
 9650SOL    HW230392   2.438   2.912   7.538  0.0869 -2.4081 -0.6769
 9651SOL     OW30393   3.146   4.164   1.047  0.1922  0.0539  0.0733
 9651SOL    HW130394   3.058   4.154   1.081  1.5772 -2.1108  3.5711
 9651SOL    HW230395   3.162   4.258   1.047 -1.7245  0.4068  0.4256
 9652SOL     OW30396   3.176   1.865   7.443 -0.9456  0.0054  0.8854
 9652SOL    HW130397   3.216   1.934   7.390 -1.8731 -1.6389 -2.1897
 9652SOL    HW230398   3.089   1.898   7.464 -0.8190  0.3951  0.7994
 9653SOL     OW30399   5.266   5.431   7.427  0.7573  0.0880  0.3483
 9653SOL    HW130400   5.338   5.379   7.461  1.5515  0.7579 -0.2596
 9653SOL    HW230401   5.309   5.503   7.379 -0.3074  0.3492 -0.2420
 9654SOL     OW30402   2.364   3.557   1.121  0.1048 -0.1407 -0.4896
 9654SOL    HW130403   2.413   3.623   1.072  0.4905  0.6117  0.8744
 9654SOL    HW230404   2.351   3.596   1.208  1.5097 -2.3816  0.8008
 9655SOL     OW30405   2.119   1.437   6.725 -0.3610 -0.0767  0.2687
 9655SOL    HW130406   2.146   1.453   6.816  0.1851 -0.5611  0.2015
 9655SOL    HW230407   2.029   1.468   6.721  0.0087  1.1077  0.6489
 9656SOL     OW30408   1.019   6.726   8.646 -0.0490  0.4421 -0.3629
 9656SOL    HW130409   0.976   6.719   8.561 -0.5708  2.2398 -0.2825
 9656SOL    HW230410   0.964   6.675   8.705 -0.1424 -0.1256 -0.9226
 9657SOL     OW30411   2.558   0.447   0.571 -0.1106 -0.2807 -0.1157
 9657SOL    HW130412   2.650   0.473   0.577 -0.7614  2.3769 -0.5562
 9657SOL    HW230413   2.539   0.445   0.477 -0.3093 -1.6891 -0.0655
 9658SOL     OW30414   1.426   6.154   8.046  0.0607  0.2650  0.1448
 9658SOL    HW130415   1.445   6.173   8.138 -0.3201 -0.9950  0.5017
 9658SOL    HW230416   1.351   6.094   8.049  0.2870 -0.0966 -0.9756
 9659SOL     OW30417   1.582   4.055   4.540 -0.3535 -0.3164  0.2694
 9659SOL    HW130418   1.521   4.108   4.590  0.4125  0.2399  0.6370
 9659SOL    HW230419   1.625   4.117   4.481 -1.8245 -1.0702 -1.7380
 9660SOL     OW30420   0.307   1.948   7.916  0.5987  0.4778 -0.6934
 9660SOL    HW130421   0.342   2.037   7.915  1.7515  0.0800  0.6640
 9660SOL    HW230422   0.212   1.960   7.904  0.7286  1.8895 -0.5520
 9661SOL     OW30423   2.248   1.391   3.470 -0.2903 -0.0253 -0.0694
 9661SOL    HW130424   2.233   1.439   3.388  0.4219 -0.5250 -0.5055
 9661SOL    HW230425   2.161   1.362   3.497 -0.5822  0.5054 -0.4226
 9662SOL     OW30426   7.835   3.903   0.810 -0.0766  0.2295  0.7065
 9662SOL    HW130427   7.754   3.954   0.798 -0.1779 -0.1826 -0.5610
 9662SOL    HW230428   7.905   3.966   0.797 -0.1966 -0.0131 -1.4660
 9663SOL     OW30429   3.519   0.193   5.870 -0.6031 -0.1045  0.3934
 9663SOL    HW130430   3.469   0.239   5.936 -0.1012  1.6390 -0.3833
 9663SOL    HW230431   3.571   0.261   5.827  2.2744 -1.7555  1.0047
 9664SOL     OW30432   6.759   3.976   9.222  0.2252  0.2549  0.0813
 9664SOL    HW130433   6.693   3.910   9.245  1.1002 -0.4987  0.5092
 9664SOL    HW230434   6.842   3.927   9.221  0.5704  0.7941 -2.1393
 9665SOL     OW30435   2.950   5.272   6.458  0.2737 -0.3531  0.0588
 9665SOL    HW130436   3.004   5.322   6.397  0.4279 -0.9734 -0.3244
 9665SOL    HW230437   2.960   5.181   6.430 -2.8628 -0.3256 -1.5546
 9666SOL     OW30438   1.990   1.910  10.709 -0.4430 -0.0911  0.0577
 9666SOL    HW130439   1.969   1.974  10.777  0.8533 -0.3583  0.7335
 9666SOL    HW230440   1.914   1.912  10.650 -0.9788  1.1342  0.7581
 9667SOL     OW30441   0.534   2.648   0.731 -0.1827 -0.2370  0.3205
 9667SOL    HW130442   0.588   2.577   0.697 -0.1804  0.0767 -0.3330
 9667SOL    HW230443   0.573   2.727   0.695 -0.5795  0.0528  0.5218
 9668SOL     OW30444   1.381   7.534   0.257  0.7195 -0.4833 -0.2408
 9668SOL    HW130445   1.439   7.544   0.333 -0.0880  1.6443  0.1825
 9668SOL    HW230446   1.306   7.486   0.290  1.3916 -1.6303 -0.3258
 9669SOL     OW30447   4.547   6.367  11.400  0.0464 -0.6194  0.1265
 9669SOL    HW130448   4.488   6.345  11.472  0.0801  0.5135  0.5163
 9669SOL    HW230449   4.492   6.362  11.322 -0.0879 -1.4586  0.2602
 9670SOL     OW30450   7.736   1.278   6.664  0.8218  0.1331 -0.3755
 9670SOL    HW130451   7.735   1.371   6.686  0.6930  0.3563 -1.2665
 9670SOL    HW230452   7.715   1.276   6.571 -0.4230 -0.8778 -0.0906
 9671SOL     OW30453   3.894   0.501  11.483  0.5129 -0.6825  0.2184
 9671SOL    HW130454   3.821   0.560  11.463  0.6481 -0.7513 -0.5056
 9671SOL    HW230455   3.856   0.434  11.539  0.3391  0.0448  0.9911
 9672SOL     OW30456   1.896   0.142   8.333  0.2390  0.1504  0.0682
 9672SOL    HW130457   1.831   0.194   8.380 -0.4617 -0.3918 -0.2832
 9672SOL    HW230458   1.924   0.076   8.397 -1.0970 -0.9169 -0.3850
 9673SOL     OW30459   5.924   7.685   4.785 -0.1264  0.4413  0.1039
 9673SOL    HW130460   5.949   7.765   4.832 -1.2084  0.7105  0.2610
 9673SOL    HW230461   5.946   7.703   4.693  0.5965  0.5065  0.2883
 9674SOL     OW30462   2.433   7.507  11.913  0.3195  0.0474  0.2997
 9674SOL    HW130463   2.406   7.432  11.965  1.6248 -0.0357  0.9180
 9674SOL    HW230464   2.453   7.575  11.977 -2.1191  1.4374 -0.2843
 9675SOL     OW30465   2.797   1.297   0.295 -0.4041 -0.2249  0.0220
 9675SOL    HW130466   2.790   1.391   0.278  0.4049 -0.1978 -0.1699
 9675SOL    HW230467   2.780   1.256   0.210 -0.0962 -0.2296 -0.0363
 9676SOL     OW30468   1.603   6.427   2.514 -0.2268 -0.8132 -0.7243
 9676SOL    HW130469   1.679   6.408   2.568  0.4653 -0.4118 -1.5216
 9676SOL    HW230470   1.625   6.392   2.428 -0.5806  0.0447 -1.1848
 9677SOL     OW30471   6.494   3.430   3.544  0.1032 -0.3068 -0.0683
 9677SOL    HW130472   6.506   3.374   3.620 -1.9200  0.1944  0.6964
 9677SOL    HW230473   6.582   3.450   3.514  0.8985 -2.2980  0.8048
 9678SOL     OW30474   1.089   2.889   2.908  0.6512 -1.0774 -0.2616
 9678SOL    HW130475   1.141   2.947   2.963 -1.1206  0.8059 -0.4410
 9678SOL    HW230476   1.087   2.806   2.955  2.3595 -0.7048  0.5523
 9679SOL     OW30477   6.607   7.075   4.285  0.0052  0.7550 -0.4242
 9679SOL    HW130478   6.556   7.111   4.212 -0.6393  1.3292  0.2935
 9679SOL    HW230479   6.659   7.149   4.317  1.3374  0.1777 -1.1548
 9680SOL     OW30480   5.618   7.535   4.041  0.2056  0.1406 -0.5286
 9680SOL    HW130481   5.669   7.548   4.121  0.3036  1.5874 -0.7928
 9680SOL    HW230482   5.528   7.554   4.066 -0.0789 -1.4398 -0.2957
 9681SOL     OW30483   6.926   4.462   7.533  0.4760 -0.5119  0.0680
 9681SOL    HW130484   6.962   4.476   7.621 -0.1173 -3.3162  0.8646
 9681SOL    HW230485   7.002   4.463   7.476  1.1093 -0.5235  0.8884
 9682SOL     OW30486   5.932   0.803   8.652  0.2627 -0.2349  0.2014
 9682SOL    HW130487   5.977   0.879   8.690  0.2970 -0.1596  0.0097
 9682SOL    HW230488   5.894   0.758   8.728 -0.4659  0.4245  0.2304
 9683SOL     OW30489   4.160   6.009   5.037 -0.1781 -0.0637 -0.0674
 9683SOL    HW130490   4.112   5.927   5.024  0.9484 -0.7375 -0.1004
 9683SOL    HW230491   4.247   5.982   5.065 -0.3352  1.1882  1.8044
 9684SOL     OW30492   7.601   2.110   9.654  0.0137  0.2117  0.2866
 9684SOL    HW130493   7.555   2.171   9.596 -0.2617 -0.1596  0.1074
 9684SOL    HW230494   7.693   2.133   9.645 -0.0515  0.3364 -0.0932
 9685SOL     OW30495   4.498   2.682   1.713 -0.6602 -0.0045  0.7536
 9685SOL    HW130496   4.467   2.772   1.700 -2.3105 -0.6797 -0.3216
 9685SOL    HW230497   4.589   2.692   1.740  0.0055  1.9497 -1.7677
 9686SOL     OW30498   0.241   4.804   5.616 -0.3318 -0.0087 -0.5484
 9686SOL    HW130499   0.329   4.826   5.646  0.6644 -0.5196 -2.8901
 9686SOL    HW230500   0.200   4.888   5.596  0.4660  0.1581 -1.5684
 9687SOL     OW30501   4.649   0.117   9.992 -0.2614  0.2342 -0.1351
 9687SOL    HW130502   4.640   0.151  10.081 -0.3047  0.3347 -0.1775
 9687SOL    HW230503   4.599   0.178   9.937 -1.8536 -0.8711  0.0076
 9688SOL     OW30504   6.851   5.144   4.314  0.0072 -0.2196  0.0710
 9688SOL    HW130505   6.934   5.186   4.335  0.9794 -2.5253  1.1909
 9688SOL    HW230506   6.793   5.169   4.386  0.2433  0.0195  0.1812
 9689SOL     OW30507   5.011   1.430   8.335  0.7002  0.2304  0.2792
 9689SOL    HW130508   5.000   1.509   8.282  0.3582 -1.4764 -2.3668
 9689SOL    HW230509   4.921   1.403   8.356  0.8285  0.8435  1.7701
 9690SOL     OW30510   1.604   1.749   2.744  0.0419 -0.0079 -0.4882
 9690SOL    HW130511   1.617   1.843   2.734  0.4170 -0.1803 -1.8647
 9690SOL    HW230512   1.685   1.716   2.781  0.1847  0.1163 -0.6909
 9691SOL     OW30513   0.016   3.149  10.163  0.5875 -0.2254  0.3609
 9691SOL    HW130514   0.053   3.204  10.094  1.1367  0.3398  1.0800
 9691SOL    HW230515  -0.063   3.112  10.125 -0.2065  1.6636  0.0893
 9692SOL     OW30516   7.440   7.071   3.053  0.2416  0.0480 -0.5683
 9692SOL    HW130517   7.408   7.070   2.963 -0.1527  0.4689 -0.4343
 9692SOL    HW230518   7.431   6.980   3.082 -0.7722  0.1373 -0.5596
 9693SOL     OW30519   4.987   7.904  11.275 -0.4546 -0.3047  0.4138
 9693SOL    HW130520   5.030   7.953  11.345 -0.2747 -0.2778  0.2852
 9693SOL    HW230521   5.058   7.862  11.227 -0.6026 -0.6460  0.4883
 9694SOL     OW30522   2.550   3.302   2.982  0.1406 -0.7230  0.4012
 9694SOL    HW130523   2.462   3.309   2.946 -0.1326 -3.1199  0.4807
 9694SOL    HW230524   2.608   3.309   2.906  0.0893  2.6268  0.5134
 9695SOL     OW30525   0.908   4.178   7.413 -0.3316  0.1385  0.9247
 9695SOL    HW130526   0.904   4.227   7.331 -0.2148 -2.2096 -0.5541
 9695SOL    HW230527   0.828   4.126   7.415  0.2982 -0.8435  1.6192
 9696SOL     OW30528   2.934   6.660  11.899  0.1748 -0.4026  0.1872
 9696SOL    HW130529   2.908   6.667  11.991  1.1467 -0.2616  0.4724
 9696SOL    HW230530   2.940   6.751  11.869 -0.9436 -0.4716 -0.2620
 9697SOL     OW30531   3.321   1.820   2.302 -0.3992 -0.0641 -0.1795
 9697SOL    HW130532   3.258   1.754   2.331  0.7790 -1.6384 -1.0180
 9697SOL    HW230533   3.362   1.851   2.382 -1.1352 -0.1572  0.2465
 9698SOL     OW30534   4.990   4.186   6.556  0.5325 -0.2852 -0.5120
 9698SOL    HW130535   4.915   4.226   6.512  0.0333 -0.3339  0.2812
 9698SOL    HW230536   5.065   4.240   6.528  0.2774 -0.4546 -1.5890
 9699SOL     OW30537   6.123   1.320  10.311  0.2036 -0.3138 -0.4601
 9699SOL    HW130538   6.143   1.375  10.235  1.0851 -0.6149 -0.4544
 9699SOL    HW230539   6.178   1.242  10.300 -1.8692 -1.7768 -1.0867
 9700SOL     OW30540   4.046   4.729   1.359 -0.1869  0.0874  0.3207
 9700SOL    HW130541   4.076   4.647   1.397 -0.5039  0.0950  0.5920
 9700SOL    HW230542   3.953   4.733   1.381 -0.5094 -0.1765 -0.9100
 9701SOL     OW30543   2.575   0.441   3.759 -0.3324  0.7653 -0.3602
 9701SOL    HW130544   2.542   0.502   3.692  1.4347 -0.2870 -2.3274
 9701SOL    HW230545   2.573   0.356   3.715 -0.9107 -0.3202  1.6580
 9702SOL     OW30546   0.543   7.714   8.271 -0.1781 -0.2220  0.4893
 9702SOL    HW130547   0.549   7.783   8.206  0.0583 -0.8465 -0.1694
 9702SOL    HW230548   0.536   7.759   8.355  1.3410  0.5925  0.1957
 9703SOL     OW30549   1.374   6.214   0.120 -0.3498  0.0822  0.0860
 9703SOL    HW130550   1.298   6.173   0.078  0.4659 -2.1314  0.6023
 9703SOL    HW230551   1.446   6.155   0.100  0.4640  0.0299  2.8368
 9704SOL     OW30552   0.829   4.356   1.051 -0.5122  0.1247 -0.0908
 9704SOL    HW130553   0.804   4.299   1.124  0.0140  1.0234  0.8191
 9704SOL    HW230554   0.794   4.312   0.974 -1.2606 -0.7524  0.7143
 9705SOL     OW30555   6.008   5.130  11.198  0.6461  0.0453 -0.3727
 9705SOL    HW130556   6.022   5.171  11.283 -1.4035  1.8204 -0.7981
 9705SOL    HW230557   6.078   5.164  11.143  1.8405 -0.9279  0.4809
 9706SOL     OW30558   2.860   0.483   0.568  0.5955  0.2043  0.2541
 9706SOL    HW130559   2.930   0.444   0.621  0.7464 -0.7908 -0.6598
 9706SOL    HW230560   2.882   0.461   0.478  0.3556  1.8954 -0.2642
 9707SOL     OW30561   0.210   1.219   6.869 -0.8765  0.4062 -0.1786
 9707SOL    HW130562   0.150   1.195   6.799 -0.5491 -1.3236  0.0837
 9707SOL    HW230563   0.240   1.135   6.905  2.2792  1.1439 -0.7932
 9708SOL     OW30564   4.119   4.740   9.432  0.3843  0.2132 -0.4999
 9708SOL    HW130565   4.162   4.806   9.377  0.8514 -0.6721 -1.2269
 9708SOL    HW230566   4.189   4.706   9.488  0.8470 -1.6575 -2.0998
 9709SOL     OW30567   7.908   6.116  11.292 -0.0753  0.2920  0.1293
 9709SOL    HW130568   7.946   6.104  11.379 -0.7305  0.2904  0.4261
 9709SOL    HW230569   7.816   6.091  11.303  0.3588 -2.2003 -1.1560
 9710SOL     OW30570   1.834   2.465   3.835  0.2948  0.0461 -0.0285
 9710SOL    HW130571   1.930   2.466   3.843  0.2469 -1.1998  1.0684
 9710SOL    HW230572   1.811   2.373   3.843 -0.9443  0.2292 -1.2509
 9711SOL     OW30573   6.048   6.402   7.991 -0.0880 -0.1868  0.0434
 9711SOL    HW130574   5.988   6.474   7.971  1.4370  1.1273 -0.0202
 9711SOL    HW230575   6.134   6.432   7.959  0.7717 -1.6377  0.8559
 9712SOL     OW30576   6.564   5.393   9.397 -0.7861 -0.3527  0.6764
 9712SOL    HW130577   6.615   5.473   9.385 -1.4470 -0.0921 -0.5478
 9712SOL    HW230578   6.613   5.326   9.348 -0.1386 -0.7707  1.8420
 9713SOL     OW30579   1.029   4.688   1.408  0.2696 -0.7937 -0.4436
 9713SOL    HW130580   0.996   4.619   1.465 -0.4104 -1.3504 -1.4870
 9713SOL    HW230581   0.968   4.690   1.335  0.9215  0.1503 -0.9811
 9714SOL     OW30582   1.191   2.807   8.535  0.1286 -0.1162  0.1973
 9714SOL    HW130583   1.193   2.727   8.587  1.2337 -0.0717  0.2451
 9714SOL    HW230584   1.193   2.878   8.600 -0.8688 -0.0349  0.1561
 9715SOL     OW30585   0.469   1.462   8.481 -0.2632 -0.1639 -0.1445
 9715SOL    HW130586   0.492   1.554   8.465  0.1702 -0.3609 -0.7112
 9715SOL    HW230587   0.377   1.455   8.456  0.0691 -0.1805 -1.4135
 9716SOL     OW30588   4.103   7.928   7.530  0.4990  0.0760 -0.1350
 9716SOL    HW130589   4.133   7.879   7.606  0.4843 -0.0947 -0.2390
 9716SOL    HW230590   4.033   7.875   7.493  0.9447 -0.1591 -0.6470
 9717SOL     OW30591   6.369   7.730  10.116  0.7886  0.6887 -0.1651
 9717SOL    HW130592   6.416   7.650  10.092 -0.7154 -0.9879  2.0695
 9717SOL    HW230593   6.318   7.753  10.038  0.2340 -1.3182 -0.4320
 9718SOL     OW30594   1.740   0.015   8.652  0.0659 -0.0591  0.2601
 9718SOL    HW130595   1.646  -0.000   8.647 -0.0303  0.6223 -0.1491
 9718SOL    HW230596   1.762  -0.001   8.744 -0.2784 -1.1123  0.1725
 9719SOL     OW30597   0.009   1.914   1.419 -0.1404  0.3196  0.0953
 9719SOL    HW130598   0.015   1.880   1.508  1.9730 -0.6264 -0.3498
 9719SOL    HW230599  -0.058   1.860   1.377  0.9655 -1.2901  0.3030
 9720SOL     OW30600   4.876   1.423  10.240  0.1836 -0.1421 -0.3018
 9720SOL    HW130601   4.792   1.376  10.241 -0.4042  0.8784  0.1991
 9720SOL    HW230602   4.915   1.400  10.156 -0.9379 -0.0678 -0.8644
 9721SOL     OW30603   7.345   6.182   1.609  0.2554  0.0755 -0.1059
 9721SOL    HW130604   7.343   6.275   1.589 -0.1128 -0.0490 -0.6653
 9721SOL    HW230605   7.438   6.160   1.613  0.3828  0.7868  1.5824
 9722SOL     OW30606   6.297   2.662  10.096 -0.1230 -0.2953  0.2255
 9722SOL    HW130607   6.332   2.697  10.014 -2.6120 -0.0486 -0.8317
 9722SOL    HW230608   6.243   2.588  10.069 -0.8462 -0.3221  1.6628
 9723SOL     OW30609   5.132   3.450   3.177  0.1287 -0.0510 -0.5733
 9723SOL    HW130610   5.039   3.451   3.155  0.4823 -2.3990 -2.5902
 9723SOL    HW230611   5.145   3.526   3.233 -2.8411  0.7623 -0.8739
 9724SOL     OW30612   4.116   4.793   3.568 -0.0785 -0.0770  0.0313
 9724SOL    HW130613   4.064   4.770   3.492  0.4577 -0.5240 -0.2098
 9724SOL    HW230614   4.052   4.821   3.634 -0.6625 -1.0414 -0.1026
 9725SOL     OW30615   2.567   3.707   0.956  0.1513 -0.1246  0.3559
 9725SOL    HW130616   2.622   3.630   0.972  0.8596  0.3683  0.3292
 9725SOL    HW230617   2.537   3.697   0.866 -2.9287 -2.3333  1.4455
 9726SOL     OW30618   3.581   6.366   6.088  0.2494  0.5820  0.5563
 9726SOL    HW130619   3.538   6.418   6.020  0.1623  0.7147  0.7135
 9726SOL    HW230620   3.675   6.377   6.070  0.2170 -0.8282 -0.6352
 9727SOL     OW30621   2.087   7.029   5.451  0.2273 -0.5060  0.5524
 9727SOL    HW130622   2.151   7.100   5.449 -0.4528  0.0896 -1.1027
 9727SOL    HW230623   2.134   6.953   5.419 -0.2368  0.2785 -2.1946
 9728SOL     OW30624   1.731   3.181   1.140  0.3130 -0.2639  0.1015
 9728SOL    HW130625   1.784   3.252   1.104  0.0260  0.3981  0.9515
 9728SOL    HW230626   1.694   3.217   1.221  3.1618 -2.5439  2.6313
 9729SOL     OW30627   0.957   4.406   2.303 -0.0426  0.1042  0.7253
 9729SOL    HW130628   0.881   4.353   2.326 -0.7473  0.2836 -1.0430
 9729SOL    HW230629   1.027   4.342   2.287 -0.6079 -0.2477 -0.4016
 9730SOL     OW30630   4.255   5.479   4.780  0.4293 -0.6743 -0.1069
 9730SOL    HW130631   4.237   5.434   4.863  0.0826  0.3594  0.4011
 9730SOL    HW230632   4.199   5.435   4.716 -0.6467 -0.3635  0.5769
 9731SOL     OW30633   0.346   0.967   9.466  0.3644 -0.3936 -0.1318
 9731SOL    HW130634   0.259   0.967   9.505  0.9326  0.2608  1.2148
 9731SOL    HW230635   0.374   0.875   9.469  1.3425 -0.1213  3.3984
 9732SOL     OW30636   7.112   3.027   1.360 -0.0768  0.8361 -0.3451
 9732SOL    HW130637   7.139   2.976   1.284  0.5811 -0.4700  0.7077
 9732SOL    HW230638   7.176   3.004   1.428 -0.5042  2.1316  0.5363
 9733SOL     OW30639   5.219   4.989  11.720  0.4009  0.3878  0.1412
 9733SOL    HW130640   5.182   4.987  11.808  0.6455 -0.0484  0.2381
 9733SOL    HW230641   5.197   5.075  11.686 -0.7963  0.0995  0.1511
 9734SOL     OW30642   0.703   0.295   9.121 -0.2592  0.7388 -0.1720
 9734SOL    HW130643   0.758   0.282   9.044  1.8614 -0.4837  1.4637
 9734SOL    HW230644   0.724   0.384   9.151  0.1254  0.6070 -0.0594
 9735SOL     OW30645   0.597   3.708   1.907  0.3400  0.2584  0.2425
 9735SOL    HW130646   0.617   3.772   1.974  0.6503  0.7631 -0.3266
 9735SOL    HW230647   0.530   3.750   1.852  0.8108  0.2476 -0.3480
 9736SOL     OW30648   2.524   5.450   5.026 -0.0333  0.4364 -0.7713
 9736SOL    HW130649   2.448   5.403   4.993 -0.3281  0.6640 -0.4242
 9736SOL    HW230650   2.584   5.453   4.952  0.5213 -1.5678 -0.4584
 9737SOL     OW30651   3.752   1.484   0.895 -0.0092  0.5210  0.0780
 9737SOL    HW130652   3.714   1.458   0.978  1.0420 -2.0338 -0.1336
 9737SOL    HW230653   3.719   1.420   0.832  2.1969 -0.0053 -0.6577
 9738SOL     OW30654   1.221   7.833  10.643  0.2063 -0.7689 -0.5999
 9738SOL    HW130655   1.196   7.915  10.685 -0.3113 -0.5304 -1.3593
 9738SOL    HW230656   1.255   7.778  10.715 -0.4001 -0.2766  0.0720
 9739SOL     OW30657   5.784   3.739   7.234  0.1855  0.1881 -0.3704
 9739SOL    HW130658   5.803   3.772   7.322  2.4391 -1.6167 -0.0740
 9739SOL    HW230659   5.857   3.770   7.181 -0.0889 -0.4326 -1.1234
 9740SOL     OW30660   4.490   7.376   2.591 -0.1041  0.1781 -0.1128
 9740SOL    HW130661   4.495   7.456   2.539 -0.7939  1.3590  1.5580
 9740SOL    HW230662   4.581   7.359   2.615 -0.1889  2.2411  2.0150
 9741SOL     OW30663   4.996   0.281   1.600  0.0790  0.4679  0.2061
 9741SOL    HW130664   4.970   0.245   1.515  2.1358  1.1712 -0.7669
 9741SOL    HW230665   5.091   0.291   1.594  0.0201  2.5798  1.8000
 9742SOL     OW30666   0.560   5.991  11.333  0.4523  0.1984 -0.2049
 9742SOL    HW130667   0.478   5.953  11.302  0.8780 -0.5897 -0.3788
 9742SOL    HW230668   0.604   5.920  11.380  2.2082 -0.1865 -2.2924
 9743SOL     OW30669   7.196   1.696   3.437 -0.1660  0.1675  0.1911
 9743SOL    HW130670   7.125   1.760   3.436 -1.3692 -1.0497  1.8544
 9743SOL    HW230671   7.188   1.650   3.353 -1.2247  0.1915  0.2638
 9744SOL     OW30672   4.173   7.830   8.231 -0.0125 -0.2010 -0.6190
 9744SOL    HW130673   4.143   7.770   8.163  3.2974 -0.9335 -1.6193
 9744SOL    HW230674   4.184   7.775   8.309 -0.5276 -0.0755 -0.4527
 9745SOL     OW30675   7.332   1.392   0.969  1.1496  0.2617  0.1443
 9745SOL    HW130676   7.391   1.321   0.995  2.3642  1.8611  2.0941
 9745SOL    HW230677   7.277   1.407   1.046 -2.8026 -1.9012 -1.9403
 9746SOL     OW30678   1.117   6.614  11.805 -0.4922 -0.5892  0.3424
 9746SOL    HW130679   1.133   6.702  11.841  2.0589 -0.7353 -0.2430
 9746SOL    HW230680   1.046   6.627  11.742  0.2059  1.1946 -0.1422
 9747SOL     OW30681   5.713   6.213   7.729  0.0226  0.2875 -0.4656
 9747SOL    HW130682   5.764   6.207   7.809 -0.9726  1.1921  0.2732
 9747SOL    HW230683   5.725   6.303   7.699 -0.7706  0.3974 -0.4979
 9748SOL     OW30684   5.972   3.829   7.023 -0.0127 -0.7827 -0.4846
 9748SOL    HW130685   6.035   3.897   6.999  0.2099 -0.0495  1.9306
 9748SOL    HW230686   5.898   3.844   6.965  2.1199 -1.9800 -3.7732
 9749SOL     OW30687   5.434   1.447   4.350 -0.7470 -0.1423 -0.2781
 9749SOL    HW130688   5.399   1.406   4.271  1.4638  0.2530 -1.5558
 9749SOL    HW230689   5.519   1.483   4.323 -0.4673  1.1015  1.9840
 9750SOL     OW30690   1.083   5.592   8.175 -0.4242  0.2782  0.8744
 9750SOL    HW130691   1.101   5.593   8.269 -0.0458  0.6780  0.7995
 9750SOL    HW230692   1.161   5.629   8.135  0.3442 -1.8764  0.2340
 9751SOL     OW30693   7.577   4.188   7.791  0.0287 -0.1572 -0.0224
 9751SOL    HW130694   7.626   4.106   7.790 -0.4108 -0.4296 -0.8332
 9751SOL    HW230695   7.601   4.231   7.709 -0.1927  0.2449  0.1223
 9752SOL     OW30696   5.756   1.434  12.298  0.3799  0.0697  0.1847
 9752SOL    HW130697   5.735   1.341  12.304  2.2639 -0.5825 -1.9898
 9752SOL    HW230698   5.803   1.453  12.380 -0.7375 -0.6504  1.0142
 9753SOL     OW30699   2.327   7.449   3.868  0.8652  0.4280  0.0952
 9753SOL    HW130700   2.240   7.489   3.865  0.2319 -0.8845 -3.2400
 9753SOL    HW230701   2.387   7.523   3.877 -0.5184  1.5317  0.5230
 9754SOL     OW30702   4.874   0.212   7.727  0.6944 -0.4707 -0.0154
 9754SOL    HW130703   4.880   0.141   7.664  0.4903  0.0236 -0.6047
 9754SOL    HW230704   4.962   0.219   7.764  0.4645 -1.7090  0.8192
 9755SOL     OW30705   7.929   1.776   0.837  0.2636 -0.2188 -0.0040
 9755SOL    HW130706   7.961   1.779   0.747 -1.5255  2.3824 -0.6437
 9755SOL    HW230707   7.834   1.775   0.829  0.0681 -0.3459  1.8658
 9756SOL     OW30708   5.609   0.298   5.490 -0.2228 -0.5275  0.3225
 9756SOL    HW130709   5.531   0.262   5.449 -1.2289  1.1795  0.6195
 9756SOL    HW230710   5.669   0.317   5.418 -0.5823 -0.7309 -0.0276
 9757SOL     OW30711   2.373   5.279   4.888  0.2992 -0.4599  0.0454
 9757SOL    HW130712   2.331   5.243   4.966  0.2030  1.3689  0.8817
 9757SOL    HW230713   2.313   5.348   4.858  1.5365  0.5789 -0.1290
 9758SOL     OW30714   3.002   5.134   6.731  0.4323  0.1899  0.0637
 9758SOL    HW130715   3.073   5.185   6.770 -1.0849  1.0199  1.8767
 9758SOL    HW230716   2.974   5.185   6.655  2.1189 -0.4619 -1.0622
 9759SOL     OW30717   2.797   1.041  10.434 -0.2022 -0.3646 -0.0157
 9759SOL    HW130718   2.726   1.054  10.496  0.6879  1.7033  0.6555
 9759SOL    HW230719   2.832   0.955  10.454 -0.3953 -0.0304  1.8783
 9760SOL     OW30720   0.690   2.003   2.639 -0.5479  0.2647 -0.0007
 9760SOL    HW130721   0.719   2.042   2.556 -2.1458  2.2431  0.2884
 9760SOL    HW230722   0.725   2.060   2.706 -0.0757 -0.7753  0.6575
 9761SOL     OW30723   7.461   5.337   2.632 -0.3276 -0.0898  0.2486
 9761SOL    HW130724   7.460   5.416   2.685 -0.0821  0.1501 -0.1031
 9761SOL    HW230725   7.422   5.363   2.548  0.9923  0.0080 -0.3569
 9762SOL     OW30726   6.455   2.585  12.123 -0.3770 -0.5244 -0.0877
 9762SOL    HW130727   6.390   2.614  12.059 -1.1490 -0.8290  0.5476
 9762SOL    HW230728   6.435   2.634  12.202  0.3408 -0.4265  0.0452
 9763SOL     OW30729   6.462   5.885   3.458 -0.4072 -0.4295  0.0650
 9763SOL    HW130730   6.469   5.933   3.541 -1.3649 -0.7155  0.3226
 9763SOL    HW230731   6.414   5.944   3.400  0.2561 -0.2326 -0.2989
 9764SOL     OW30732   0.889   1.170  10.335 -0.7706 -0.0816  0.0341
 9764SOL    HW130733   0.879   1.098  10.397 -1.7477 -0.6933 -0.7880
 9764SOL    HW230734   0.813   1.226  10.351 -0.2366  0.5518  0.3837
 9765SOL     OW30735   4.607   7.949   9.006  0.1159 -0.2043  0.0678
 9765SOL    HW130736   4.558   7.994   8.937 -0.4324 -0.1019  0.5242
 9765SOL    HW230737   4.686   7.917   8.961  0.2110  0.6561 -0.4043
 9766SOL     OW30738   0.740   6.910   2.752 -0.3667 -0.3612 -0.1683
 9766SOL    HW130739   0.738   6.841   2.818  2.2579  0.0914  0.5035
 9766SOL    HW230740   0.710   6.988   2.798  0.4327 -0.2704  0.2183
 9767SOL     OW30741   3.278   1.245   2.594 -0.0155 -0.3928 -0.3492
 9767SOL    HW130742   3.304   1.308   2.661  1.7569 -0.8326 -0.5551
 9767SOL    HW230743   3.194   1.210   2.623 -0.7923  1.6522  0.0410
 9768SOL     OW30744   5.295   4.369  10.507 -0.4864  0.1838  0.2679
 9768SOL    HW130745   5.327   4.328  10.587  0.0620 -0.4391 -0.2641
 9768SOL    HW230746   5.316   4.307  10.438 -3.0170 -0.3674 -0.0957
 9769SOL     OW30747   6.943   3.549   8.709 -0.2000 -0.7955  0.5462
 9769SOL    HW130748   6.944   3.496   8.788  0.3567 -0.2439  0.9110
 9769SOL    HW230749   7.010   3.615   8.723 -0.2146 -0.5857 -0.3137
 9770SOL     OW30750   7.144   7.479   0.473 -0.3171 -0.3359 -0.1823
 9770SOL    HW130751   7.124   7.409   0.411 -0.5118  0.0919 -0.6127
 9770SOL    HW230752   7.219   7.447   0.523  0.5181 -0.2704 -1.3434
 9771SOL     OW30753   6.977   2.253   4.962 -0.1341 -0.5299  0.3817
 9771SOL    HW130754   7.067   2.284   4.971 -0.1085 -0.0772 -1.1662
 9771SOL    HW230755   6.931   2.291   5.037  0.9210 -0.6807  1.1260
 9772SOL     OW30756   7.669   0.968   0.616  0.1456  0.6148 -0.0169
 9772SOL    HW130757   7.587   0.971   0.665 -0.7409 -1.4700 -1.2564
 9772SOL    HW230758   7.646   0.994   0.527  0.4081 -1.6280 -0.8021
 9773SOL     OW30759   2.624   5.388   7.337 -0.1329  0.2457 -0.2093
 9773SOL    HW130760   2.597   5.296   7.330 -1.1517  0.5413 -0.2286
 9773SOL    HW230761   2.630   5.418   7.247  0.2224  0.1981 -0.2033
 9774SOL     OW30762   5.650   6.100   1.047 -0.0948  0.3024 -0.1723
 9774SOL    HW130763   5.678   6.189   1.025 -0.5525  0.3166 -0.7196
 9774SOL    HW230764   5.581   6.112   1.113  0.7283  0.2913  0.7132
 9775SOL     OW30765   3.934   3.535  11.594  0.3272  0.4193 -0.2609
 9775SOL    HW130766   3.849   3.494  11.582 -0.7042  2.4577 -0.2963
 9775SOL    HW230767   3.988   3.500  11.523 -0.4039 -1.0450 -0.1200
 9776SOL     OW30768   7.873   6.127   8.586  0.2421 -0.4195 -0.2350
 9776SOL    HW130769   7.929   6.053   8.560  2.1212  0.4935  1.0040
 9776SOL    HW230770   7.797   6.086   8.627  0.6732 -1.6775 -0.6305
 9777SOL     OW30771   5.620   4.568  12.400  0.1055  0.2490  0.0243
 9777SOL    HW130772   5.649   4.516  12.475 -1.1673  1.1663  1.1839
 9777SOL    HW230773   5.702   4.598  12.360  0.8216 -0.7382  0.6737
 9778SOL     OW30774   2.929   3.755   1.450 -0.2160 -0.2150 -0.2648
 9778SOL    HW130775   2.955   3.829   1.395  0.3895 -0.5091 -0.3839
 9778SOL    HW230776   3.011   3.723   1.488 -0.6707  0.3603  1.3181
 9779SOL     OW30777   4.661   6.148  11.598 -0.2333 -0.1219  0.1209
 9779SOL    HW130778   4.599   6.135  11.527  1.2486  1.0818 -1.4837
 9779SOL    HW230779   4.736   6.093  11.575 -0.2049 -0.6747  1.4294
 9780SOL     OW30780   2.140   0.477   5.587 -0.4230 -0.0157 -0.0132
 9780SOL    HW130781   2.081   0.412   5.624  1.0529 -2.5006 -1.7227
 9780SOL    HW230782   2.126   0.555   5.640 -3.6127 -1.1172  0.9875
 9781SOL     OW30783   3.100   3.438   7.090 -0.1191 -0.7765 -0.0666
 9781SOL    HW130784   3.126   3.517   7.043  2.2878  0.0047  2.3421
 9781SOL    HW230785   3.013   3.458   7.123 -0.6073 -0.1837 -1.5991
 9782SOL     OW30786   7.577   5.786   4.281  0.3038 -0.7215  0.6398
 9782SOL    HW130787   7.561   5.830   4.197  0.1851 -2.3136 -0.2122
 9782SOL    HW230788   7.629   5.848   4.331 -0.2378  0.5620 -0.3251
 9783SOL     OW30789   6.960   6.813   1.426  0.2635 -0.2936  0.7217
 9783SOL    HW130790   6.994   6.743   1.482  0.5523 -0.5290  0.2586
 9783SOL    HW230791   7.036   6.841   1.374  0.1388  0.3280  0.8665
 9784SOL     OW30792   7.185   4.309   3.739  0.2922 -0.0385  0.5171
 9784SOL    HW130793   7.149   4.363   3.670 -0.4869 -1.6907 -0.4354
 9784SOL    HW230794   7.235   4.241   3.693  3.3134  1.1625  1.7231
 9785SOL     OW30795   0.397   7.625   0.743  0.6406  0.3845 -0.0272
 9785SOL    HW130796   0.472   7.608   0.801  0.6459 -0.6707 -0.3235
 9785SOL    HW230797   0.432   7.683   0.676  1.2414 -0.2017 -0.2352
 9786SOL     OW30798   6.323   6.455   9.787  0.1899  0.0961  0.9558
 9786SOL    HW130799   6.381   6.381   9.799 -0.2035 -0.2656  0.6788
 9786SOL    HW230800   6.269   6.457   9.866 -0.6667 -0.7097  0.4107
 9787SOL     OW30801   3.838   0.920   2.796  0.6295  0.0492 -0.2111
 9787SOL    HW130802   3.891   0.873   2.860  0.0984  0.6770  0.7246
 9787SOL    HW230803   3.900   0.947   2.728  1.2891 -0.2627  0.2564
 9788SOL     OW30804   5.973   3.749   1.702 -0.1792 -0.0461  0.1555
 9788SOL    HW130805   5.976   3.842   1.724  1.4272  0.1154 -0.5732
 9788SOL    HW230806   5.884   3.722   1.724 -0.1900  1.2655  1.9450
 9789SOL     OW30807   3.811   4.992   9.174 -0.2211  0.3620 -1.2076
 9789SOL    HW130808   3.825   4.951   9.259  0.8538  0.6860 -1.2132
 9789SOL    HW230809   3.719   4.975   9.153 -0.7543  1.0831  0.4355
 9790SOL     OW30810   2.861   4.822  11.930  0.3765 -0.3255 -0.3975
 9790SOL    HW130811   2.878   4.861  11.845 -0.1195  1.9404  0.4645
 9790SOL    HW230812   2.834   4.732  11.911  1.2900 -0.1924 -2.5295
 9791SOL     OW30813   3.530   6.011   0.468 -0.5459  0.4009  0.1117
 9791SOL    HW130814   3.463   6.058   0.418 -1.3271 -1.2391 -0.4451
 9791SOL    HW230815   3.603   6.003   0.407 -0.9487 -0.3306 -0.2822
 9792SOL     OW30816   6.488   7.168  10.589 -0.6827  0.0585 -0.0353
 9792SOL    HW130817   6.579   7.141  10.582 -0.2920  1.0797  0.8409
 9792SOL    HW230818   6.444   7.123  10.517  0.1825 -1.7436  0.4809
 9793SOL     OW30819   0.664   7.616   3.706  0.3456 -0.2397 -0.5503
 9793SOL    HW130820   0.728   7.571   3.761 -0.4339 -0.5059  0.1675
 9793SOL    HW230821   0.705   7.620   3.620  1.6433  0.2915  0.0726
 9794SOL     OW30822   3.751   3.375   1.529  0.5095  0.6971  0.4052
 9794SOL    HW130823   3.830   3.426   1.515  0.3027  1.4576  1.8568
 9794SOL    HW230824   3.747   3.361   1.623  1.2176 -3.1164  0.0214
 9795SOL     OW30825   4.954   3.213   9.257 -0.2001 -0.0567 -0.3464
 9795SOL    HW130826   4.885   3.223   9.191  0.1717 -0.8719 -0.8845
 9795SOL    HW230827   5.004   3.294   9.252 -1.0842  0.5181  0.0122
 9796SOL     OW30828   7.116   2.106   6.260 -0.0817 -0.2406 -0.0079
 9796SOL    HW130829   7.190   2.150   6.219  0.4203 -0.6371  0.4544
 9796SOL    HW230830   7.137   2.107   6.354 -0.4490 -0.7400  0.0849
 9797SOL     OW30831   3.776   2.268   3.689 -0.0977 -0.3803  0.1309
 9797SOL    HW130832   3.708   2.302   3.630  1.0254  0.5067 -0.7069
 9797SOL    HW230833   3.728   2.231   3.763 -1.4580  2.8160  1.0227
 9798SOL     OW30834   2.669   5.578   5.447  0.5452 -0.0033  0.2985
 9798SOL    HW130835   2.685   5.564   5.354  1.1182  0.0441  0.3846
 9798SOL    HW230836   2.650   5.490   5.481 -0.2715  0.0581  0.0366
 9799SOL     OW30837   7.728   5.388  11.541  0.4230 -0.6554 -0.5298
 9799SOL    HW130838   7.671   5.440  11.598 -1.0634 -1.6529 -1.0554
 9799SOL    HW230839   7.805   5.369  11.594 -0.5613 -0.8438  0.8689
 9800SOL     OW30840   5.205   3.404   4.276  0.4942  0.5519  0.2336
 9800SOL    HW130841   5.198   3.320   4.320  2.3557  0.7951  1.0821
 9800SOL    HW230842   5.115   3.437   4.272 -0.3556 -1.6443 -0.5410
 9801SOL     OW30843   7.953   0.474  12.082 -0.6377 -0.5099  0.1146
 9801SOL    HW130844   7.997   0.554  12.112  1.4883 -2.4606  2.6615
 9801SOL    HW230845   7.870   0.473  12.130 -0.0826 -0.4219  1.1223
 9802SOL     OW30846   6.554   4.473  11.544 -0.2358 -0.3077  0.0118
 9802SOL    HW130847   6.510   4.388  11.546  0.3609 -0.7072 -2.0245
 9802SOL    HW230848   6.627   4.464  11.605 -0.5404 -1.0447  0.2783
 9803SOL     OW30849   1.915   2.593   8.545  0.0289  0.8080 -0.3221
 9803SOL    HW130850   1.820   2.595   8.555  0.0916  0.2620  0.4856
 9803SOL    HW230851   1.949   2.602   8.634  0.6626 -2.6601 -0.0627
 9804SOL     OW30852   2.328   2.669   0.165 -0.3816 -0.2960 -0.0985
 9804SOL    HW130853   2.376   2.680   0.247 -0.8736  0.6873  0.0730
 9804SOL    HW230854   2.384   2.613   0.111  1.4029  1.5466 -0.2491
 9805SOL     OW30855   1.973   6.556   4.727 -0.8527 -0.8547 -0.4701
 9805SOL    HW130856   1.907   6.537   4.794 -0.1997 -1.9164 -0.0882
 9805SOL    HW230857   2.012   6.639   4.754 -1.5449 -0.5719 -0.3166
 9806SOL     OW30858   4.481   0.296   0.901 -0.1620  0.4663 -0.8718
 9806SOL    HW130859   4.496   0.385   0.934 -2.1992  0.0313  1.5438
 9806SOL    HW230860   4.400   0.303   0.851 -0.4493 -0.0382 -0.4879
 9807SOL     OW30861   0.957   6.584   6.771  0.5069  0.2026 -0.2724
 9807SOL    HW130862   0.867   6.594   6.803  0.3960 -1.6692  0.1176
 9807SOL    HW230863   0.974   6.490   6.775  1.9568  0.3504 -1.8476
 9808SOL     OW30864   2.981   0.764   5.552  0.6118  0.5937  0.2690
 9808SOL    HW130865   3.061   0.734   5.509  0.7723  1.7869 -0.2828
 9808SOL    HW230866   2.959   0.693   5.612  0.8223 -0.7622 -1.1938
 9809SOL     OW30867   5.614   2.899   9.105 -0.0306 -0.0540  0.3892
 9809SOL    HW130868   5.678   2.970   9.112 -0.1114 -0.0567  1.1747
 9809SOL    HW230869   5.611   2.880   9.011 -0.1019  1.0658  0.1409
 9810SOL     OW30870   4.582   1.953   3.393 -0.1041  0.0444  0.0458
 9810SOL    HW130871   4.517   2.005   3.346  0.9272  1.1582 -0.2035
 9810SOL    HW230872   4.604   1.881   3.333 -0.7260 -0.0455 -0.0756
 9811SOL     OW30873   5.357   5.010   6.038  0.5618 -0.3510  0.0807
 9811SOL    HW130874   5.391   5.099   6.052  0.0708 -0.2757  0.8273
 9811SOL    HW230875   5.274   5.008   6.086  0.0374 -0.8797 -0.8227
 9812SOL     OW30876   5.614   2.815   8.178 -0.6855 -0.1345 -0.2960
 9812SOL    HW130877   5.593   2.867   8.100  0.2734 -0.6538 -0.9197
 9812SOL    HW230878   5.665   2.741   8.145  1.3481  0.5949  1.0037
 9813SOL     OW30879   4.025   6.627   6.650  0.2237 -0.5676 -0.5648
 9813SOL    HW130880   4.108   6.585   6.626  1.0638  1.3328 -1.1984
 9813SOL    HW230881   3.995   6.669   6.569 -1.4858 -1.3703 -0.3921
 9814SOL     OW30882   2.240   7.843   9.255 -0.5563 -0.1733  0.0514
 9814SOL    HW130883   2.291   7.852   9.335 -1.0816 -0.6121  0.4417
 9814SOL    HW230884   2.170   7.908   9.263  0.8533  1.5943 -1.2320
 9815SOL     OW30885   0.941   5.410   0.764  0.1422  0.5571  0.1167
 9815SOL    HW130886   0.977   5.497   0.745  0.5134  0.0892 -1.4915
 9815SOL    HW230887   1.018   5.354   0.773 -0.1190 -0.0193 -1.0760
 9816SOL     OW30888   4.629   1.326   1.958 -0.1128  0.2840 -0.0887
 9816SOL    HW130889   4.566   1.313   1.887 -0.8808  1.7085  0.2686
 9816SOL    HW230890   4.577   1.367   2.028  0.0860 -2.9921  2.2123
 9817SOL     OW30891   2.819   6.007   7.434 -0.1985 -0.0061  0.0958
 9817SOL    HW130892   2.785   5.918   7.423  1.3954 -0.7193  0.5376
 9817SOL    HW230893   2.794   6.052   7.354  0.9473 -1.5756 -1.2346
 9818SOL     OW30894   4.616   4.116   7.584  0.0231  0.1149 -0.2942
 9818SOL    HW130895   4.663   4.199   7.575  1.2906 -0.4658  0.6570
 9818SOL    HW230896   4.562   4.111   7.505  0.6404  1.3893 -0.8394
 9819SOL     OW30897   2.846   5.255  11.516  0.0416 -0.1752  0.3715
 9819SOL    HW130898   2.852   5.296  11.603  0.5378  0.6175 -0.0245
 9819SOL    HW230899   2.873   5.324  11.455  2.1758 -1.4577 -0.2376
 9820SOL     OW30900   0.574   5.887  10.298  0.3262 -0.5989 -0.1338
 9820SOL    HW130901   0.525   5.962  10.264  0.8417  0.1938  0.8252
 9820SOL    HW230902   0.661   5.922  10.318  0.7396 -1.5751 -0.1570
 9821SOL     OW30903   2.398   2.477   1.993  0.7610 -0.1771  0.3854
 9821SOL    HW130904   2.368   2.536   1.924  0.2984  0.1153  0.8290
 9821SOL    HW230905   2.318   2.433   2.023  1.1177 -1.1749 -0.0655
 9822SOL     OW30906   7.226   6.712  12.108 -0.8390  0.1923  0.3546
 9822SOL    HW130907   7.262   6.636  12.061 -1.2767 -0.3938  0.9423
 9822SOL    HW230908   7.299   6.774  12.112 -0.5636 -0.0570 -0.4127
 9823SOL     OW30909   5.232   2.736   4.834 -0.3835 -0.5610 -0.5270
 9823SOL    HW130910   5.303   2.678   4.860  0.8586 -0.5379 -3.4574
 9823SOL    HW230911   5.275   2.814   4.799 -1.9254  0.4069 -0.3948
 9824SOL     OW30912   1.352   3.753   6.740 -0.3347 -0.4451 -0.3584
 9824SOL    HW130913   1.300   3.677   6.713 -0.6484  0.0013 -1.0377
 9824SOL    HW230914   1.403   3.775   6.663 -0.1113 -0.0752 -0.1043
 9825SOL     OW30915   4.932   1.825   5.932 -0.1124 -0.3242 -0.8954
 9825SOL    HW130916   4.844   1.856   5.907 -0.7677  0.6072  2.1544
 9825SOL    HW230917   4.916   1.743   5.979  0.9874 -1.6166 -2.6460
 9826SOL     OW30918   5.829   3.979   0.256 -0.3211 -0.0728 -0.0977
 9826SOL    HW130919   5.825   3.917   0.183  0.2338 -3.0928  2.2197
 9826SOL    HW230920   5.739   3.980   0.291  0.1481 -1.5493  1.2841
 9827SOL     OW30921   1.278   1.791   9.285 -0.7422  0.0292  0.3968
 9827SOL    HW130922   1.316   1.784   9.373 -0.1194  2.3241  0.3819
 9827SOL    HW230923   1.352   1.774   9.227 -0.6413  0.5763  0.3548
 9828SOL     OW30924   5.197   5.299  10.713  0.3081  0.1830  0.0395
 9828SOL    HW130925   5.115   5.255  10.737 -0.1684  1.2874  0.4669
 9828SOL    HW230926   5.216   5.266  10.625  0.6576 -1.8500  0.8018
 9829SOL     OW30927   2.732   6.227   7.236 -0.3288  0.3033 -0.1339
 9829SOL    HW130928   2.674   6.188   7.171  0.2015 -0.6776 -0.0405
 9829SOL    HW230929   2.809   6.255   7.185 -0.9301  1.7527 -0.2848
 9830SOL     OW30930   2.709   2.873   2.229  0.0934  0.2337  0.5634
 9830SOL    HW130931   2.667   2.956   2.251  0.9576  1.1499 -1.0412
 9830SOL    HW230932   2.790   2.899   2.185 -0.2924 -1.4475 -1.2423
 9831SOL     OW30933   0.761   7.687   5.184 -0.4612 -0.0368 -0.1939
 9831SOL    HW130934   0.806   7.702   5.101 -2.2251  1.7102 -0.9041
 9831SOL    HW230935   0.832   7.671   5.247  1.0779  1.1242 -1.5508
 9832SOL     OW30936   0.678   7.944   7.929 -0.0188  0.2340 -0.3106
 9832SOL    HW130937   0.700   7.970   8.019  1.6114  1.4755 -1.0146
 9832SOL    HW230938   0.602   7.886   7.939  0.7985 -0.5692  1.9508
 9833SOL     OW30939   3.181   1.053   8.611  0.5397 -0.4244  0.4660
 9833SOL    HW130940   3.140   1.017   8.690  0.4950 -0.2324  0.5328
 9833SOL    HW230941   3.136   1.011   8.538 -0.6340  0.6844  0.5166
 9834SOL     OW30942   3.358   6.523   9.106 -0.3890  0.5671 -0.6328
 9834SOL    HW130943   3.352   6.584   9.032 -1.5549 -0.0031 -1.0377
 9834SOL    HW230944   3.272   6.527   9.147  0.6147  1.7933  1.4928
 9835SOL     OW30945   1.169   3.919   7.166 -0.0808  0.2179 -0.0955
 9835SOL    HW130946   1.200   4.009   7.154  2.1293 -0.5448 -0.5278
 9835SOL    HW230947   1.191   3.898   7.257  0.5037 -0.2578 -0.3397
 9836SOL     OW30948   1.129   7.495  11.347  0.3858 -0.1203 -0.1272
 9836SOL    HW130949   1.146   7.513  11.439  0.0732  0.1782 -0.1258
 9836SOL    HW230950   1.216   7.492  11.307  0.5349 -0.5075  0.2198
 9837SOL     OW30951   1.171   2.240  10.728 -0.0584  0.2458 -0.2844
 9837SOL    HW130952   1.245   2.275  10.677  0.4527 -1.4546 -0.7933
 9837SOL    HW230953   1.175   2.286  10.811  2.2715 -0.5032  0.1115
 9838SOL     OW30954   7.344   0.321   8.266 -0.1939  0.4504  0.4851
 9838SOL    HW130955   7.360   0.271   8.347 -0.3285  2.0143  1.5146
 9838SOL    HW230956   7.252   0.305   8.245  0.1247 -0.8590 -0.0246
 9839SOL     OW30957   6.758   3.272   8.311 -0.7154 -0.2706 -0.3320
 9839SOL    HW130958   6.742   3.269   8.405 -1.4322  0.8060 -0.4089
 9839SOL    HW230959   6.850   3.247   8.302  0.0968  1.9868  0.8759
 9840SOL     OW30960   5.666   5.008   1.637  0.2792 -0.2829 -0.1773
 9840SOL    HW130961   5.759   4.998   1.658  0.3147  1.0497  0.3893
 9840SOL    HW230962   5.644   4.928   1.589  1.2583 -1.4894  1.2702
 9841SOL     OW30963   2.426   0.707   5.559 -0.3784 -0.3634  0.4722
 9841SOL    HW130964   2.438   0.653   5.481  0.1900 -1.4307  1.2725
 9841SOL    HW230965   2.482   0.667   5.625  1.3694  2.1373  0.6864
 9842SOL     OW30966   2.422   7.012   9.412  0.0823  0.1452  0.5441
 9842SOL    HW130967   2.505   7.058   9.403 -0.3957  1.2596  1.4381
 9842SOL    HW230968   2.445   6.928   9.452  0.7421  0.6276  1.2025
 9843SOL     OW30969   6.367   2.745   0.401  0.8697  0.1657  0.2467
 9843SOL    HW130970   6.286   2.698   0.384  2.1314 -1.4836 -1.7223
 9843SOL    HW230971   6.425   2.680   0.440  1.6190  0.9796  0.5223
 9844SOL     OW30972   5.525   7.688   1.966 -0.3285 -0.2962  0.2554
 9844SOL    HW130973   5.438   7.652   1.986 -0.1387 -1.2038 -0.4510
 9844SOL    HW230974   5.514   7.782   1.973 -1.2625 -0.4187  0.6196
 9845SOL     OW30975   3.536   4.640   2.774 -0.6616  0.3057  0.5605
 9845SOL    HW130976   3.571   4.579   2.709 -1.1746  1.2597 -0.6404
 9845SOL    HW230977   3.444   4.651   2.751 -0.6996  1.1514  1.0628
 9846SOL     OW30978   6.483   5.494   8.348 -0.0721 -0.2970 -0.1164
 9846SOL    HW130979   6.421   5.500   8.276 -1.0555 -0.7450  0.6727
 9846SOL    HW230980   6.478   5.579   8.391  0.0523 -0.2469 -0.1999
 9847SOL     OW30981   5.654   7.577  11.754 -0.4277  0.2839  0.1966
 9847SOL    HW130982   5.749   7.569  11.743 -0.2059  1.6658  0.9510
 9847SOL    HW230983   5.631   7.657  11.706 -1.4611 -0.7896 -1.1992
 9848SOL     OW30984   6.550   7.295   7.625 -0.5848 -0.5162 -0.5755
 9848SOL    HW130985   6.533   7.203   7.646  0.6862 -0.4190  1.0929
 9848SOL    HW230986   6.467   7.339   7.644 -0.7876 -1.1198  0.0026
 9849SOL     OW30987   3.194   2.843   7.103  0.9506 -0.4044 -0.2038
 9849SOL    HW130988   3.193   2.883   7.016  2.2836  1.7014  0.6673
 9849SOL    HW230989   3.281   2.805   7.111  0.3020 -2.0106 -0.3212
 9850SOL     OW30990   3.028   6.831   7.797 -0.6311  0.1349 -0.1148
 9850SOL    HW130991   3.021   6.926   7.787 -0.8409  0.2620  1.0971
 9850SOL    HW230992   3.070   6.819   7.882  0.6343 -0.8505 -0.8506
 9851SOL     OW30993   2.170   2.765  12.386 -0.8808 -0.1699  0.3018
 9851SOL    HW130994   2.205   2.718  12.462 -0.6460  0.2060  0.4282
 9851SOL    HW230995   2.243   2.767  12.324 -0.4829  1.0930  0.7786
 9852SOL     OW30996   3.928   6.134   3.009 -0.1717 -0.2825  0.2946
 9852SOL    HW130997   3.834   6.148   3.020 -0.3079 -1.3654  0.5884
 9852SOL    HW230998   3.961   6.125   3.099  0.1939 -0.0910  0.1842
 9853SOL     OW30999   0.479   6.235   3.588  0.0874  0.7327  0.2123
 9853SOL    HW131000   0.410   6.216   3.652 -1.4006 -0.9798 -1.7092
 9853SOL    HW231001   0.561   6.228   3.636 -1.0042  3.1861  2.6872
 9854SOL     OW31002   4.986   0.936   2.185  0.0763  0.3084  0.0118
 9854SOL    HW131003   4.921   0.977   2.128  0.6502 -0.7037 -1.4437
 9854SOL    HW231004   5.013   1.005   2.245  0.0351  1.6582 -1.4743
 9855SOL     OW31005   6.413   1.966   5.844  0.4552 -0.8062  0.4172
 9855SOL    HW131006   6.398   1.879   5.882 -0.4422 -0.9560 -0.2385
 9855SOL    HW231007   6.508   1.976   5.843  0.5899 -2.0593 -0.1071
 9856SOL     OW31008   3.346   6.584   0.221 -0.1666  0.1837  0.2548
 9856SOL    HW131009   3.420   6.589   0.161 -1.4364  0.2334 -1.3474
 9856SOL    HW231010   3.313   6.495   0.212 -1.9332  0.9237 -1.0980
 9857SOL     OW31011   1.982   1.766   8.534  0.5061  0.0144  0.0108
 9857SOL    HW131012   2.070   1.767   8.495 -0.3821  1.2810 -2.1112
 9857SOL    HW231013   1.941   1.688   8.498  0.4241 -0.0417  0.2251
 9858SOL     OW31014   7.428   0.757   6.931 -0.2124 -0.1492  0.0225
 9858SOL    HW131015   7.342   0.795   6.946 -0.1864  0.6203 -1.5836
 9858SOL    HW231016   7.487   0.833   6.922  0.6716 -0.6578  1.1837
 9859SOL     OW31017   4.195   6.185   5.360  0.1502 -0.1784 -0.0465
 9859SOL    HW131018   4.208   6.236   5.280  1.3039 -0.1742  0.1300
 9859SOL    HW231019   4.102   6.165   5.361 -0.0023  0.4369 -1.0207
 9860SOL     OW31020   1.607   2.614   5.815 -0.3811 -0.4286  0.4853
 9860SOL    HW131021   1.674   2.566   5.764 -0.8273 -0.6738  0.1229
 9860SOL    HW231022   1.524   2.585   5.778 -0.6832  0.0746  0.7650
 9861SOL     OW31023   1.963   4.944   8.866  0.2096  0.0376 -0.1723
 9861SOL    HW131024   2.006   5.011   8.920 -0.6104  0.2203  0.2730
 9861SOL    HW231025   2.035   4.892   8.830  0.8299  0.8419 -0.1033
 9862SOL     OW31026   1.985   1.202   0.546  0.0471 -0.2904 -0.4832
 9862SOL    HW131027   1.928   1.175   0.474 -1.2440  2.4812 -0.6242
 9862SOL    HW231028   2.070   1.219   0.505 -0.9949  2.4868 -1.7393
 9863SOL     OW31029   6.208   5.949   8.677  0.2692  0.0733 -0.3142
 9863SOL    HW131030   6.235   6.038   8.653  0.9114 -0.1404 -0.4090
 9863SOL    HW231031   6.122   5.938   8.636  0.4644  0.4327 -0.8274
 9864SOL     OW31032   2.788   5.627   7.647  0.1239  1.0782 -0.1784
 9864SOL    HW131033   2.864   5.661   7.696  0.7052  0.5441 -0.7055
 9864SOL    HW231034   2.738   5.579   7.713  2.0544 -1.5637 -0.4927
 9865SOL     OW31035   3.490   6.180   0.759 -0.0064  0.5602 -0.2258
 9865SOL    HW131036   3.427   6.240   0.718  0.9249  1.0989 -0.8954
 9865SOL    HW231037   3.538   6.141   0.686  0.6647  0.4033  0.2889
 9866SOL     OW31038   7.464   2.709  10.254 -0.3588 -0.4981  0.1407
 9866SOL    HW131039   7.461   2.800  10.226 -0.4643 -0.1262  1.3005
 9866SOL    HW231040   7.424   2.709  10.341 -0.2284 -1.6248  0.2191
 9867SOL     OW31041   3.535   0.151  12.442 -0.2422 -0.3145  0.1079
 9867SOL    HW131042   3.623   0.189  12.439 -0.5420  0.3419 -0.2917
 9867SOL    HW231043   3.488   0.203  12.507 -0.7137  0.1378 -0.5858
 9868SOL     OW31044   4.574   0.664   5.397 -0.3813  0.0548 -0.7011
 9868SOL    HW131045   4.615   0.578   5.388 -1.0603 -0.3092 -0.3687
 9868SOL    HW231046   4.586   0.706   5.312  0.6739 -0.0430 -0.6075
 9869SOL     OW31047   7.231   2.627   1.002 -0.1454  0.2539 -0.0867
 9869SOL    HW131048   7.253   2.710   1.045 -2.7582 -0.2032  2.4052
 9869SOL    HW231049   7.283   2.562   1.049  0.5134  0.2525 -0.8052
 9870SOL     OW31050   2.873   5.756   4.996  0.2458 -0.3018 -0.0374
 9870SOL    HW131051   2.818   5.681   5.020  1.8713 -1.2050  1.0989
 9870SOL    HW231052   2.931   5.767   5.071  2.0915  0.1312 -1.4602
 9871SOL     OW31053   4.296   3.557   7.706  0.1715 -0.0585 -0.6186
 9871SOL    HW131054   4.256   3.586   7.788  1.2094 -1.5679  0.4905
 9871SOL    HW231055   4.230   3.574   7.639 -1.6149 -0.8282  0.8601
 9872SOL     OW31056   6.923   5.913   8.923  0.4485 -0.8620  0.6933
 9872SOL    HW131057   6.941   5.848   8.991  1.0495 -1.9356 -0.4327
 9872SOL    HW231058   6.829   5.907   8.907  0.2914 -0.5534  1.4535
 9873SOL     OW31059   1.499   7.928   4.398 -0.4337  0.0261 -0.4230
 9873SOL    HW131060   1.424   7.885   4.357 -0.5814  0.7023 -0.8874
 9873SOL    HW231061   1.546   7.969   4.326  0.3401 -0.3206 -0.1224
 9874SOL     OW31062   0.753   6.760   3.396  0.3460 -0.0128 -0.0564
 9874SOL    HW131063   0.749   6.849   3.362  1.2919  0.9066  2.0736
 9874SOL    HW231064   0.737   6.704   3.319  0.3035  1.9474 -1.5469
 9875SOL     OW31065   6.972   2.831   1.144  0.0531 -0.2934  0.2154
 9875SOL    HW131066   7.040   2.799   1.203  0.5994 -1.1521 -0.8416
 9875SOL    HW231067   7.008   2.910   1.105  0.1718 -0.3723  0.1638
 9876SOL     OW31068   2.013   0.667  12.377 -0.3368 -0.2682 -0.4160
 9876SOL    HW131069   2.099   0.706  12.359 -0.4875  0.0388 -0.4782
 9876SOL    HW231070   2.015   0.582  12.333 -0.3242  0.0419 -1.0253
 9877SOL     OW31071   7.612   7.607   6.434  0.7549  0.0529 -0.1349
 9877SOL    HW131072   7.594   7.516   6.412  0.8048  0.8217 -4.2963
 9877SOL    HW231073   7.531   7.640   6.472  0.5919 -1.5583  0.9980
 9878SOL     OW31074   3.811   6.225   0.217 -0.3270 -0.1371  0.2959
 9878SOL    HW131075   3.831   6.235   0.124 -0.6796  0.2790  0.2582
 9878SOL    HW231076   3.867   6.290   0.260  0.3827 -0.8398  0.4496
 9879SOL     OW31077   6.670   1.498   3.572  0.2189  0.2465 -0.4313
 9879SOL    HW131078   6.629   1.515   3.657  0.2200  3.0925 -0.9124
 9879SOL    HW231079   6.745   1.442   3.593 -1.0068 -0.9165  1.1118
 9880SOL     OW31080   3.696   1.355   3.281  0.0505 -0.0888 -0.8091
 9880SOL    HW131081   3.714   1.277   3.334 -0.1473 -0.3253 -1.0809
 9880SOL    HW231082   3.602   1.351   3.265  0.1110 -0.0388 -1.1993
 9881SOL     OW31083   2.267   4.250  12.372 -0.2319 -0.2438 -0.0416
 9881SOL    HW131084   2.337   4.301  12.414 -0.9410  0.3919  0.4077
 9881SOL    HW231085   2.201   4.315  12.348 -1.1134 -0.9241  0.4477
 9882SOL     OW31086   1.692   6.273  12.003  0.2136  0.0055 -0.0231
 9882SOL    HW131087   1.652   6.329  12.069  0.7884  0.1343  0.2255
 9882SOL    HW231088   1.673   6.184  12.032  1.4036  0.0365  0.9362
 9883SOL     OW31089   6.939   4.579  12.037 -0.4167 -0.2941  0.0280
 9883SOL    HW131090   6.958   4.492  12.004 -0.3761 -0.0153 -0.6929
 9883SOL    HW231091   6.853   4.571  12.078 -0.1733 -0.7946  0.4478
 9884SOL     OW31092   2.154   1.460   7.054 -0.5148 -0.1144 -0.5238
 9884SOL    HW131093   2.232   1.485   7.103 -0.7054  0.5621 -0.5452
 9884SOL    HW231094   2.179   1.381   7.007  0.5099  0.6839 -1.3737
 9885SOL     OW31095   3.239   0.034   4.639 -0.0307  0.2884 -0.0625
 9885SOL    HW131096   3.278   0.105   4.587 -0.5900  1.3858  0.9620
 9885SOL    HW231097   3.272   0.048   4.727  1.4575 -1.9656 -0.1775
 9886SOL     OW31098   1.079   0.252   9.390 -0.6300  0.5224  0.1789
 9886SOL    HW131099   1.063   0.296   9.307  1.1942 -1.8701 -1.5768
 9886SOL    HW231100   1.010   0.285   9.448 -1.3856  3.0140 -1.9338
 9887SOL     OW31101   6.453   7.854   3.405 -0.2253  0.2128  0.0520
 9887SOL    HW131102   6.388   7.900   3.352 -0.5212 -0.9655 -0.6451
 9887SOL    HW231103   6.404   7.821   3.480 -0.1995  0.2665  0.0927
 9888SOL     OW31104   1.789   5.667   0.462  0.4205 -0.6566  0.1121
 9888SOL    HW131105   1.765   5.576   0.442  0.8642 -0.7230 -0.1197
 9888SOL    HW231106   1.875   5.679   0.421 -0.2039  0.2694 -0.9820
 9889SOL     OW31107   1.868   7.127   0.057 -0.3750  0.0711 -0.2310
 9889SOL    HW131108   1.899   7.162   0.140 -2.7356  1.2809  0.2320
 9889SOL    HW231109   1.904   7.186  -0.010 -1.7230  1.5912  0.3087
 9890SOL     OW31110   6.704   2.437   6.498 -0.5495  0.0836  0.1528
 9890SOL    HW131111   6.754   2.387   6.434 -0.6333 -0.6394  0.6339
 9890SOL    HW231112   6.633   2.378   6.525 -0.3883  0.2884  1.0613
 9891SOL     OW31113   7.795   6.643   4.003  0.5817  0.4414 -0.1949
 9891SOL    HW131114   7.857   6.708   3.970  1.1856 -0.3266 -0.6112
 9891SOL    HW231115   7.711   6.688   4.005  1.1854  1.5802  0.6098
 9892SOL     OW31116   4.363   1.765   1.500  0.2339 -1.1457  0.3353
 9892SOL    HW131117   4.334   1.721   1.420  0.5400  1.0035 -1.0368
 9892SOL    HW231118   4.287   1.816   1.529  1.5698  2.4606 -1.8279
 9893SOL     OW31119   3.359   2.948   1.397  0.1725 -0.3858  0.1570
 9893SOL    HW131120   3.371   3.006   1.322  2.2733 -0.9038  0.0299
 9893SOL    HW231121   3.352   2.860   1.358  2.6570 -0.8226  0.5590
 9894SOL     OW31122   4.902   0.685   0.640  0.0517  0.2977 -0.1742
 9894SOL    HW131123   4.970   0.629   0.602 -0.7762 -2.4832  2.1734
 9894SOL    HW231124   4.825   0.669   0.585  0.2005  0.3400 -0.4007
 9895SOL     OW31125   1.590   7.084   0.149  0.1662 -0.0664  0.3034
 9895SOL    HW131126   1.603   7.111   0.240  2.8960 -0.8491  0.2197
 9895SOL    HW231127   1.617   6.992   0.146 -0.4446 -0.2315 -1.1871
 9896SOL     OW31128   4.122   1.957   8.520  0.3899  0.0032 -0.0715
 9896SOL    HW131129   4.203   1.909   8.506  0.2391  0.1331 -1.4594
 9896SOL    HW231130   4.150   2.041   8.557  0.8272 -0.2210  0.1136
 9897SOL     OW31131   2.921   1.844   5.950 -0.0681  0.0266 -0.2727
 9897SOL    HW131132   2.883   1.757   5.938 -0.9738 -0.0151  2.3547
 9897SOL    HW231133   3.014   1.827   5.964 -0.1851 -0.4857 -0.0930
 9898SOL     OW31134   4.218   3.050   3.682  0.2604 -0.5520 -0.2777
 9898SOL    HW131135   4.202   3.032   3.589  0.2624 -1.9117 -0.0329
 9898SOL    HW231136   4.138   3.023   3.726  0.7551 -1.1832  0.2573
 9899SOL     OW31137   0.265   5.316   9.780  0.0949  0.3752 -0.2719
 9899SOL    HW131138   0.289   5.392   9.728  0.7008  1.2189  1.1873
 9899SOL    HW231139   0.205   5.266   9.724 -0.5800  2.0860 -1.1365
 9900SOL     OW31140   5.054   3.759   8.238  0.8695 -0.1429 -0.5576
 9900SOL    HW131141   5.054   3.807   8.155  1.0057  0.1107 -0.4153
 9900SOL    HW231142   5.021   3.672   8.216 -1.7644  0.7251 -0.4099
 9901SOL     OW31143   2.511   4.088   6.080  0.0251 -0.3038  0.1064
 9901SOL    HW131144   2.495   4.141   6.159  1.4338 -0.7883  0.7581
 9901SOL    HW231145   2.456   4.011   6.092 -0.2246 -0.0949  0.3300
 9902SOL     OW31146   6.270   0.284   0.613  0.0378  0.2148  0.3610
 9902SOL    HW131147   6.355   0.304   0.653  1.1983 -0.5315 -1.5991
 9902SOL    HW231148   6.237   0.210   0.663  0.9818 -0.0770  0.5695
 9903SOL     OW31149   5.751   7.345  10.474  0.1783 -0.2535  0.7511
 9903SOL    HW131150   5.830   7.347  10.420  0.3327  0.5952  0.9915
 9903SOL    HW231151   5.696   7.278  10.433  0.7260 -0.3570  0.1616
 9904SOL     OW31152   0.243   1.466   4.718 -0.1195  0.0679  0.2676
 9904SOL    HW131153   0.288   1.427   4.643  1.3267  2.7127 -0.3847
 9904SOL    HW231154   0.302   1.452   4.792  0.6992  1.3841 -0.0894
 9905SOL     OW31155   0.977   1.542   4.847 -0.1987 -0.2219  0.5566
 9905SOL    HW131156   0.898   1.565   4.896 -0.6127 -0.3558 -0.0301
 9905SOL    HW231157   1.045   1.599   4.883 -0.5072 -0.2541  1.2192
 9906SOL     OW31158   2.486   4.810   5.447 -0.6115  0.5154 -0.2380
 9906SOL    HW131159   2.559   4.764   5.489 -0.2941  1.1874 -0.0439
 9906SOL    HW231160   2.440   4.741   5.399 -0.0436  0.0235 -0.0995
 9907SOL     OW31161   4.219   7.487   9.584  0.7285  0.3717 -0.5379
 9907SOL    HW131162   4.277   7.546   9.632  1.2190 -0.9880  0.6145
 9907SOL    HW231163   4.267   7.464   9.505  0.4883  1.5585 -1.0563
 9908SOL     OW31164   4.525   2.451   8.407 -0.3288 -0.2328 -0.1416
 9908SOL    HW131165   4.510   2.523   8.345 -1.1025  0.2545  0.5796
 9908SOL    HW231166   4.556   2.494   8.487  0.6360 -0.8503 -0.1704
 9909SOL     OW31167   1.050   2.592  11.151 -0.3540  0.4581  0.0669
 9909SOL    HW131168   1.011   2.619  11.233 -0.9214 -2.3470  0.8363
 9909SOL    HW231169   0.977   2.554  11.101  0.5249 -0.7084 -0.3786
 9910SOL     OW31170   2.289   2.719   9.446 -0.1975 -0.0791 -0.4641
 9910SOL    HW131171   2.383   2.714   9.466 -0.2945  0.4605  0.1442
 9910SOL    HW231172   2.286   2.732   9.351  0.5046  3.8446 -0.1065
 9911SOL     OW31173   5.739   3.582   3.197  0.4796  0.1207  0.2167
 9911SOL    HW131174   5.757   3.488   3.192 -2.3370 -0.4438 -2.0470
 9911SOL    HW231175   5.825   3.623   3.191  1.6056 -2.2935 -2.4136
 9912SOL     OW31176   4.813   0.772   1.251  0.0607 -0.2062  0.3889
 9912SOL    HW131177   4.819   0.794   1.344  1.4373 -2.7926  1.0109
 9912SOL    HW231178   4.772   0.686   1.250 -1.4096  0.4569 -1.5687
 9913SOL     OW31179   3.252   0.009   9.796  0.4647  0.2237  0.2550
 9913SOL    HW131180   3.205  -0.002   9.879 -0.0911  0.0373 -0.0751
 9913SOL    HW231181   3.334  -0.038   9.809  1.1976  1.7283  1.3329
 9914SOL     OW31182   2.156   5.330   3.102  0.2826 -0.4558 -0.0901
 9914SOL    HW131183   2.061   5.330   3.100  0.2560  1.4280 -0.9866
 9914SOL    HW231184   2.179   5.383   3.179  0.5940 -0.3668 -0.2421
 9915SOL     OW31185   0.937   3.824   0.348 -0.8555 -0.2893  0.0692
 9915SOL    HW131186   0.873   3.801   0.415 -1.0404 -0.8000 -0.2777
 9915SOL    HW231187   1.020   3.787   0.381 -1.0176 -0.8641 -0.1527
 9916SOL     OW31188   4.651   3.286   3.737  0.3256  0.7749  0.1942
 9916SOL    HW131189   4.620   3.377   3.733 -0.0504  0.6490  0.2282
 9916SOL    HW231190   4.668   3.262   3.646  0.3066  0.8370  0.1741
 9917SOL     OW31191   6.643   0.314   9.907 -0.5424 -0.3880 -0.5334
 9917SOL    HW131192   6.709   0.373   9.945 -2.2040  1.2791 -0.0483
 9917SOL    HW231193   6.604   0.365   9.836 -3.1882 -0.1333  0.9586
 9918SOL     OW31194   7.813   0.294   7.999  0.3120  0.2621 -0.2279
 9918SOL    HW131195   7.898   0.287   8.042  0.7635  0.5724 -1.0374
 9918SOL    HW231196   7.749   0.290   8.070  0.8233 -3.1006  0.2033
 9919SOL     OW31197   7.208   2.304  11.668 -0.0841 -0.1952  0.1031
 9919SOL    HW131198   7.202   2.267  11.580  1.4756 -0.0007 -0.1234
 9919SOL    HW231199   7.164   2.240  11.724 -0.9422 -0.4065 -0.7780
 9920SOL     OW31200   1.581   6.365   9.300 -0.2999 -0.3996 -0.2941
 9920SOL    HW131201   1.670   6.357   9.335 -0.2631  1.1067  0.0280
 9920SOL    HW231202   1.527   6.384   9.377 -0.3293  2.2171 -0.8483
 9921SOL     OW31203   2.658   4.418   2.753 -0.6196 -0.0544  0.6010
 9921SOL    HW131204   2.702   4.362   2.817 -0.0087  0.9811  1.1251
 9921SOL    HW231205   2.631   4.359   2.683  1.5203 -0.7853  0.3127
 9922SOL     OW31206   2.740   2.555   8.534  0.2689  0.1329  0.5761
 9922SOL    HW131207   2.775   2.636   8.499 -0.9433  0.4940  0.1747
 9922SOL    HW231208   2.646   2.560   8.520 -0.0055 -0.7017  1.8605
 9923SOL     OW31209   5.366   7.161   0.311 -0.3780  0.6022  0.2483
 9923SOL    HW131210   5.383   7.068   0.300  0.2666  0.5298  1.5473
 9923SOL    HW231211   5.313   7.166   0.391  0.6575  1.4059  0.9103
 9924SOL     OW31212   0.833   3.884   0.731  0.2212  0.0512 -0.3366
 9924SOL    HW131213   0.791   3.833   0.662 -1.0989  0.8761 -0.1802
 9924SOL    HW231214   0.873   3.819   0.788  2.3126 -0.6288 -2.4301
 9925SOL     OW31215   7.765   7.881   8.120 -0.7876 -0.3376 -0.3087
 9925SOL    HW131216   7.676   7.915   8.127 -0.8989 -0.4172 -1.2824
 9925SOL    HW231217   7.807   7.935   8.053  0.3713  0.6779  1.1433
 9926SOL     OW31218   1.957   1.627   1.021 -0.5003  0.1512  0.0756
 9926SOL    HW131219   2.021   1.615   1.091 -0.1411 -0.4532 -0.3475
 9926SOL    HW231220   1.995   1.696   0.966  0.5046 -1.1781 -0.9599
 9927SOL     OW31221   6.168   7.056   6.900 -0.8567 -0.7106  0.5763
 9927SOL    HW131222   6.193   7.043   6.808 -1.7406 -0.5998  0.3074
 9927SOL    HW231223   6.250   7.072   6.945 -0.2907 -1.8512 -0.0061
 9928SOL     OW31224   6.966   0.479   2.250  0.4479 -0.0521  0.4094
 9928SOL    HW131225   6.958   0.574   2.247  1.8225  0.0946  0.9236
 9928SOL    HW231226   7.023   0.457   2.176  0.1059 -0.4817  0.2690
 9929SOL     OW31227   3.671   7.054   6.636 -0.3849  0.0105  0.5905
 9929SOL    HW131228   3.641   7.022   6.551 -0.7609  2.0549 -0.1051
 9929SOL    HW231229   3.759   7.089   6.618  0.7004 -1.9891  1.6785
 9930SOL     OW31230   3.243   7.792   9.433 -0.2134 -0.2621 -0.4446
 9930SOL    HW131231   3.200   7.868   9.393 -4.2039 -2.5837 -1.1029
 9930SOL    HW231232   3.281   7.745   9.360  3.3807  1.4969  0.0844
 9931SOL     OW31233   3.761   5.893  11.073 -0.2096 -0.1165 -0.2129
 9931SOL    HW131234   3.769   5.799  11.087 -1.2622 -0.1194  0.4431
 9931SOL    HW231235   3.781   5.906  10.980 -1.9887 -1.2371 -0.7865
 9932SOL     OW31236   3.769   0.465   7.701 -0.4140 -0.0095  0.2012
 9932SOL    HW131237   3.812   0.445   7.784  0.9085 -0.4926 -0.5683
 9932SOL    HW231238   3.803   0.400   7.640 -1.9333 -0.1393 -0.5708
 9933SOL     OW31239   6.316   4.648   0.327  0.0685 -0.6343  0.2341
 9933SOL    HW131240   6.407   4.662   0.353  0.3232 -0.9195 -0.4608
 9933SOL    HW231241   6.273   4.612   0.404  0.5971 -0.6928  0.4999
 9934SOL     OW31242   4.593   2.623   8.038 -0.0506 -0.2174  0.0823
 9934SOL    HW131243   4.665   2.678   8.070  0.6075 -0.9641 -0.1053
 9934SOL    HW231244   4.567   2.663   7.955  1.9283 -1.4404 -1.1990
 9935SOL     OW31245   1.864   6.068   3.976  0.5129 -0.4828  0.1175
 9935SOL    HW131246   1.860   6.128   3.902  1.0913 -1.5212 -0.7939
 9935SOL    HW231247   1.852   6.123   4.053  0.4942  0.7096 -0.7166
 9936SOL     OW31248   4.383   7.089   8.982  0.0600  0.4965  0.4532
 9936SOL    HW131249   4.449   7.123   9.042  2.8531 -3.0304 -0.3115
 9936SOL    HW231250   4.432   7.055   8.908 -2.8109 -0.5868 -1.1403
 9937SOL     OW31251   0.060   5.491   0.861  0.1775 -0.2464 -0.0842
 9937SOL    HW131252   0.148   5.480   0.896  0.2270  0.9349  0.2037
 9937SOL    HW231253   0.073   5.532   0.775 -0.1380  2.4490  1.0589
 9938SOL     OW31254   5.131   0.143   2.392 -0.3176 -0.0187 -0.4143
 9938SOL    HW131255   5.050   0.093   2.377  0.0838 -0.1432 -2.3936
 9938SOL    HW231256   5.108   0.233   2.372 -0.6497  0.4513  1.7537
 9939SOL     OW31257   0.696   5.050   9.293 -0.6442 -0.6467 -0.1537
 9939SOL    HW131258   0.637   4.991   9.339 -0.1337  0.3524  1.9044
 9939SOL    HW231259   0.668   5.138   9.320  2.3435 -0.1451  1.7965
 9940SOL     OW31260   4.096   5.559   7.484 -0.6617  0.2428 -0.0463
 9940SOL    HW131261   4.013   5.606   7.485 -0.8719 -0.0124 -2.0877
 9940SOL    HW231262   4.124   5.561   7.392  1.6761  0.4657  0.6034
 9941SOL     OW31263   3.910   2.186   2.802 -0.2787  0.2228 -0.3184
 9941SOL    HW131264   3.887   2.278   2.789 -0.7257  0.2643  0.6202
 9941SOL    HW231265   3.906   2.174   2.897 -2.8762 -1.3941 -0.5312
 9942SOL     OW31266   0.706   6.302   3.037 -0.0589  0.4563  0.3784
 9942SOL    HW131267   0.656   6.223   3.056 -0.9456 -0.1873 -3.7822
 9942SOL    HW231268   0.798   6.273   3.038 -0.4029 -0.9290 -1.8116
 9943SOL     OW31269   0.829   5.273  11.593  0.3309  0.4260 -0.1203
 9943SOL    HW131270   0.832   5.184  11.557 -0.8837  0.3133  0.0236
 9943SOL    HW231271   0.870   5.266  11.679  0.0659 -0.0340 -0.0292
 9944SOL     OW31272   2.905   6.327  10.593 -0.0786  0.3699 -0.4993
 9944SOL    HW131273   2.857   6.295  10.669  0.8631 -0.3489 -0.1905
 9944SOL    HW231274   2.984   6.368  10.629  0.0409  0.6378 -1.0481
 9945SOL     OW31275   4.406   3.751   7.148 -0.3814  0.4014  0.2082
 9945SOL    HW131276   4.316   3.719   7.142 -1.3367  2.6063  1.5603
 9945SOL    HW231277   4.417   3.773   7.240  2.1137 -1.2097  0.3914
 9946SOL     OW31278   7.524   6.247   3.392 -0.4228  0.2632  0.3769
 9946SOL    HW131279   7.446   6.195   3.375 -0.4576  0.1725  0.8236
 9946SOL    HW231280   7.554   6.219   3.478  1.0749 -0.9362 -0.4861
 9947SOL     OW31281   5.128   3.973   0.667 -0.1943 -0.4113 -0.2846
 9947SOL    HW131282   5.105   3.925   0.747 -0.1342  1.1992  0.7473
 9947SOL    HW231283   5.046   3.982   0.619 -1.0987  1.8974  1.4874
 9948SOL     OW31284   0.546   3.018   8.942 -0.1648 -0.0304 -0.4075
 9948SOL    HW131285   0.487   3.053   9.009 -0.2589 -0.9080 -0.0232
 9948SOL    HW231286   0.488   2.991   8.871 -0.1346  0.0496 -0.4637
 9949SOL     OW31287   1.478   5.910   1.803  0.4981 -0.0974 -0.5912
 9949SOL    HW131288   1.388   5.885   1.824  0.4528  0.2550 -0.3508
 9949SOL    HW231289   1.518   5.830   1.770  0.4230 -0.5567  0.3778
 9950SOL     OW31290   0.280   3.744   8.904 -0.1424 -0.2365  0.1843
 9950SOL    HW131291   0.214   3.684   8.938  0.5093 -0.1084  1.7799
 9950SOL    HW231292   0.363   3.711   8.940  0.5384  0.2161 -0.9102
 9951SOL     OW31293   1.764   1.340  11.137 -0.6811  0.4178  0.6941
 9951SOL    HW131294   1.743   1.425  11.176 -0.8881  1.8262 -2.2008
 9951SOL    HW231295   1.707   1.334  11.060 -1.2582 -2.7680  1.2077
 9952SOL     OW31296   3.543   5.574   3.480 -0.1928 -0.7094 -0.1003
 9952SOL    HW131297   3.604   5.612   3.417  0.3222 -1.4181 -0.0436
 9952SOL    HW231298   3.599   5.539   3.549 -0.7627  0.3836  0.9486
 9953SOL     OW31299   2.247   4.527   1.237 -0.5929  0.0690  0.1408
 9953SOL    HW131300   2.198   4.532   1.155 -0.3490  1.2911  0.0552
 9953SOL    HW231301   2.331   4.569   1.218 -0.1115 -0.5922  0.7275
 9954SOL     OW31302   3.545   6.440   1.747 -0.8572  0.5033 -0.2128
 9954SOL    HW131303   3.472   6.462   1.689 -1.4879 -0.3613  0.2148
 9954SOL    HW231304   3.541   6.505   1.816 -0.4570  1.1947 -0.8287
 9955SOL     OW31305   3.975   7.955   2.377  0.3073  0.2422 -0.6411
 9955SOL    HW131306   3.977   7.967   2.472 -2.6698 -1.5128 -0.2377
 9955SOL    HW231307   3.980   8.044   2.342 -0.0725  1.0590  1.2402
 9956SOL     OW31308   4.240   6.666   9.381 -0.0529 -0.0398 -0.5908
 9956SOL    HW131309   4.257   6.744   9.328  0.9170  1.2779  1.5477
 9956SOL    HW231310   4.322   6.618   9.379  0.2901  0.4793  0.4106
 9957SOL     OW31311   0.558   3.049   7.134  0.3309  0.0937  0.9773
 9957SOL    HW131312   0.612   3.053   7.213  1.2182 -0.9517  0.4372
 9957SOL    HW231313   0.566   2.959   7.104  0.5802  0.6518 -0.7112
 9958SOL     OW31314   4.881   2.702  11.906  0.1174  0.2715 -0.4007
 9958SOL    HW131315   4.815   2.656  11.854 -1.3856 -2.3677  3.4270
 9958SOL    HW231316   4.832   2.765  11.958  1.0437  0.3496  0.4054
 9959SOL     OW31317   2.398   0.300   0.059  0.3199  0.1300 -0.5982
 9959SOL    HW131318   2.463   0.240   0.096  0.1968  1.5288  2.1041
 9959SOL    HW231319   2.322   0.245   0.040 -0.7157 -0.4870  4.0414
 9960SOL     OW31320   5.739   5.870  11.635 -0.4721  0.0570 -0.0034
 9960SOL    HW131321   5.697   5.881  11.549 -2.2883  2.2835  1.0632
 9960SOL    HW231322   5.672   5.827  11.688 -0.7184  1.8527  1.2062
 9961SOL     OW31323   1.707   5.877   7.945 -0.5004 -0.4247  0.0226
 9961SOL    HW131324   1.620   5.838   7.956  0.0950 -1.2734  2.4301
 9961SOL    HW231325   1.706   5.954   8.002 -0.6254  1.3926 -2.3070
 9962SOL     OW31326   4.973   6.544  11.809 -0.2757  0.0372 -0.0701
 9962SOL    HW131327   5.042   6.581  11.864  0.1547 -1.3533  0.3798
 9962SOL    HW231328   4.894   6.591  11.834 -0.0644 -0.4538  1.6622
 9963SOL     OW31329   7.550   1.965  10.886 -0.6966  0.4731  0.0125
 9963SOL    HW131330   7.575   2.054  10.863  1.7990  0.0294  0.7607
 9963SOL    HW231331   7.622   1.911  10.854 -0.8430 -0.9718  1.9619
 9964SOL     OW31332   0.550   2.244   6.365  0.4190  0.8115 -0.2541
 9964SOL    HW131333   0.512   2.165   6.326 -0.3265  1.2997 -0.5478
 9964SOL    HW231334   0.644   2.228   6.365  0.2140 -0.5193  0.6726
 9965SOL     OW31335   1.496   7.363   2.595  0.1751 -0.4705 -0.2976
 9965SOL    HW131336   1.484   7.410   2.678 -0.1377 -1.1371  0.0419
 9965SOL    HW231337   1.537   7.427   2.537  0.1956  0.0728  0.3048
 9966SOL     OW31338   5.766   3.691   7.760 -0.0754  0.5401 -0.3320
 9966SOL    HW131339   5.780   3.756   7.691 -0.5154  0.8822 -0.1092
 9966SOL    HW231340   5.671   3.688   7.771  0.0125  0.8507  0.5977
 9967SOL     OW31341   4.148   2.340  10.143 -0.0300 -0.0213 -0.2900
 9967SOL    HW131342   4.189   2.331  10.229 -1.4684 -1.6738  0.2716
 9967SOL    HW231343   4.118   2.431  10.140 -0.5700 -0.1235  1.2350
 9968SOL     OW31344   6.987   5.175  11.444 -0.0950 -0.3924 -0.0080
 9968SOL    HW131345   6.972   5.103  11.383 -0.9421  0.2217 -0.5486
 9968SOL    HW231346   7.004   5.132  11.528 -1.3419 -1.2257 -0.1494
 9969SOL     OW31347   3.870   2.668   5.887  0.1266 -0.1053  0.0814
 9969SOL    HW131348   3.776   2.670   5.907  0.0653  1.3498 -0.2670
 9969SOL    HW231349   3.896   2.760   5.883  1.5938 -0.4927  0.2448
 9970SOL     OW31350   7.626   1.791   9.649 -0.4208 -0.1752 -0.5425
 9970SOL    HW131351   7.708   1.824   9.686 -0.9187  0.5907 -0.1064
 9970SOL    HW231352   7.559   1.818   9.712 -0.8974 -1.6952 -0.3560
 9971SOL     OW31353   5.352   4.682   8.429  0.4004  0.4150 -0.3181
 9971SOL    HW131354   5.357   4.777   8.443 -0.0741  0.5370 -0.9285
 9971SOL    HW231355   5.326   4.647   8.514  0.2265  0.8631 -0.1818
 9972SOL     OW31356   6.973   1.186  11.013  0.2590  0.1733  0.2802
 9972SOL    HW131357   6.917   1.209  10.939 -1.0423 -2.3684  0.3480
 9972SOL    HW231358   7.024   1.111  10.982  1.2289  0.3881  1.2936
 9973SOL     OW31359   5.842   4.101  11.235  0.1609  0.2107  0.1776
 9973SOL    HW131360   5.834   4.166  11.166 -0.2909  2.0761  1.9049
 9973SOL    HW231361   5.854   4.151  11.315 -1.3152 -1.7696  1.7591
 9974SOL     OW31362   0.038   1.666   4.280  0.2457 -0.3683  0.4135
 9974SOL    HW131363   0.019   1.572   4.275 -1.1385 -0.0542 -0.9330
 9974SOL    HW231364  -0.047   1.709   4.266  1.1549  1.0968 -0.9824
 9975SOL     OW31365   4.908   4.040   7.230  0.3545  0.1127 -0.4466
 9975SOL    HW131366   4.926   3.970   7.168 -0.1582  0.6124 -1.1742
 9975SOL    HW231367   4.830   4.012   7.277  1.2150 -0.6510  0.5831
 9976SOL     OW31368   3.993   4.252   6.510  0.0648  0.1864 -0.1126
 9976SOL    HW131369   3.999   4.252   6.414 -1.5315  1.0126 -0.2423
 9976SOL    HW231370   4.078   4.287   6.539  0.1611  0.9831 -1.2717
 9977SOL     OW31371   6.793   5.944   6.832 -0.2517  0.0900 -0.3835
 9977SOL    HW131372   6.760   5.961   6.743  0.7051  1.2235 -0.5407
 9977SOL    HW231373   6.882   5.911   6.819 -0.1302  0.1961  0.1525
 9978SOL     OW31374   2.458   6.669  10.016  0.1275  0.3757 -0.2538
 9978SOL    HW131375   2.552   6.682  10.028 -0.3718  1.4207  4.4265
 9978SOL    HW231376   2.429   6.626  10.096 -3.5532  0.9016 -1.1164
 9979SOL     OW31377   4.210   1.341   4.759  0.1694  0.0864  0.1881
 9979SOL    HW131378   4.255   1.423   4.737 -0.5963  0.3692 -0.3563
 9979SOL    HW231379   4.122   1.368   4.784 -0.0451 -0.5605  0.1391
 9980SOL     OW31380   5.190   6.843   5.224  0.3586  0.0910  0.2039
 9980SOL    HW131381   5.227   6.923   5.188  0.1859  0.4864  0.8929
 9980SOL    HW231382   5.168   6.865   5.315 -1.4189 -0.1565 -0.1312
 9981SOL     OW31383   7.444   0.809   8.753 -0.3764  0.2147  0.3041
 9981SOL    HW131384   7.445   0.726   8.802 -0.4315 -0.6429 -1.1003
 9981SOL    HW231385   7.503   0.794   8.679  0.1260  1.6714  0.3673
 9982SOL     OW31386   3.721   0.095   3.898  0.0072 -0.4864 -0.7904
 9982SOL    HW131387   3.759   0.007   3.895 -0.1000 -0.5094 -1.6529
 9982SOL    HW231388   3.655   0.095   3.829 -0.8196 -0.0921 -0.0265
 9983SOL     OW31389   1.670   0.199  10.620  0.3829 -0.3548  0.0455
 9983SOL    HW131390   1.765   0.195  10.606  0.3781  1.1186 -0.5643
 9983SOL    HW231391   1.660   0.265  10.688 -0.2878  0.5256 -0.8929
 9984SOL     OW31392   6.563   5.821   2.140 -0.0101  0.3728  0.5235
 9984SOL    HW131393   6.518   5.898   2.104 -0.8155 -0.1452  0.4192
 9984SOL    HW231394   6.631   5.858   2.196  2.4003  1.2979 -2.6978
 9985SOL     OW31395   6.540   6.852   0.306  0.6639  0.1752  0.0786
 9985SOL    HW131396   6.551   6.786   0.374 -0.2920  0.3931  0.4604
 9985SOL    HW231397   6.584   6.816   0.229 -0.9763 -1.5419 -0.1177
 9986SOL     OW31398   1.240   4.135  11.949  0.5321  0.0160 -0.1395
 9986SOL    HW131399   1.201   4.055  11.913 -0.2246  0.9356 -1.4822
 9986SOL    HW231400   1.221   4.202  11.883  1.6996  1.1767  0.6487
 9987SOL     OW31401   0.932   6.877   5.965 -0.1211 -0.6377 -0.1463
 9987SOL    HW131402   0.961   6.872   6.056 -1.3507  0.5465  0.3504
 9987SOL    HW231403   0.896   6.791   5.945  0.1865 -0.9089  0.4767
 9988SOL     OW31404   6.702   5.871   5.881  0.0967  0.2229 -0.5630
 9988SOL    HW131405   6.766   5.829   5.824 -0.5308 -0.7568 -0.5841
 9988SOL    HW231406   6.682   5.954   5.838  0.0342 -0.2581 -1.4966
 9989SOL     OW31407   2.741   2.616   3.166  0.2350 -0.1687  0.4533
 9989SOL    HW131408   2.813   2.570   3.209  1.5979 -0.2378 -1.8026
 9989SOL    HW231409   2.706   2.553   3.103 -0.5277  0.5501  0.1351
 9990SOL     OW31410   3.909   6.024   3.515  0.7196 -0.4731  0.0421
 9990SOL    HW131411   3.880   6.045   3.603  1.6352 -0.4119  0.3422
 9990SOL    HW231412   3.971   5.952   3.527  0.6572 -0.6363 -0.5759
 9991SOL     OW31413   3.630   7.235  10.976  0.2357  0.6295 -0.0170
 9991SOL    HW131414   3.661   7.145  10.978  1.5864  1.0256 -0.9689
 9991SOL    HW231415   3.659   7.273  11.059 -1.3884 -0.0896  0.9284
 9992SOL     OW31416   6.712   3.244   9.580  0.0550  0.7561  0.0548
 9992SOL    HW131417   6.645   3.181   9.608  0.3765  0.5466  0.3590
 9992SOL    HW231418   6.715   3.234   9.485  0.9933 -0.6144  0.2036
 9993SOL     OW31419   3.603   2.042  11.045 -0.1028  0.0704 -0.0197
 9993SOL    HW131420   3.650   2.056  11.127 -2.6873  0.6548  1.4916
 9993SOL    HW231421   3.624   2.119  10.992  0.2001  0.6000  0.8484
 9994SOL     OW31422   5.264   5.061   8.809  0.0963  0.0764 -0.5911
 9994SOL    HW131423   5.237   5.009   8.885  1.1964  0.2756 -0.0477
 9994SOL    HW231424   5.289   4.995   8.743  0.3483 -0.0899 -0.3301
 9995SOL     OW31425   0.224   1.910   0.695 -0.6982 -0.2077  0.2371
 9995SOL    HW131426   0.175   1.950   0.767 -1.4476 -0.1554 -0.2883
 9995SOL    HW231427   0.164   1.915   0.620  0.7484  1.4742 -0.8877
 9996SOL     OW31428   7.278   7.588  11.199 -0.2864  0.2030  0.0781
 9996SOL    HW131429   7.282   7.592  11.295  0.0979  0.5685  0.0525
 9996SOL    HW231430   7.185   7.576  11.179 -0.1752 -1.6710  0.5445
 9997SOL     OW31431   3.303   4.878   4.100 -0.3144  0.1548  0.4462
 9997SOL    HW131432   3.256   4.894   4.018 -1.0878  0.3910  0.9185
 9997SOL    HW231433   3.381   4.932   4.094 -0.3281  0.1178 -0.1639
 9998SOL     OW31434   5.937   2.028   9.538  0.5699  0.1556 -0.5137
 9998SOL    HW131435   5.886   1.953   9.568  1.1041  0.4888  1.3971
 9998SOL    HW231436   5.922   2.095   9.605  0.5175  1.5788 -1.9008
 9999SOL     OW31437   0.973   5.221   9.874  0.3460 -0.2115  0.2694
 9999SOL    HW131438   0.919   5.149   9.905  1.4678 -1.0894  0.2768
 9999SOL    HW231439   0.915   5.273   9.818 -0.5642 -0.9565  0.4943
10000SOL     OW31440   6.119   1.225   2.855 -0.3316 -0.2441  0.0357
10000SOL    HW131441   6.132   1.307   2.903 -1.2212 -1.0008  1.6848
10000SOL    HW231442   6.136   1.247   2.764  0.6500  1.4732  0.5870
10001SOL     OW31443   1.963   5.083   5.398  0.8008 -0.1715  0.4295
10001SOL    HW131444   1.878   5.048   5.374  0.9070 -1.5488  1.9008
10001SOL    HW231445   1.952   5.178   5.394 -1.5590 -0.2093  2.8677
10002SOL     OW31446   3.859   1.244   4.102 -0.3422 -0.5525  0.3437
10002SOL    HW131447   3.840   1.278   4.189  0.1093 -2.0821  1.0837
10002SOL    HW231448   3.902   1.316   4.056 -0.8472  0.3673  1.2871
10003SOL     OW31449   3.797   4.601  10.980  0.3319  0.5626  0.3560
10003SOL    HW131450   3.749   4.519  10.991  0.1207  0.7603  0.9177
10003SOL    HW231451   3.828   4.599  10.889 -0.4741  0.2887  0.0812
10004SOL     OW31452   0.807   2.836   7.735 -0.0987 -0.1799 -0.0249
10004SOL    HW131453   0.864   2.904   7.699 -0.7841  0.1336 -0.5344
10004SOL    HW231454   0.799   2.858   7.828 -0.6610  0.7003 -0.2693
10005SOL     OW31455   0.363   4.531   4.258  0.1740  0.2316  0.0308
10005SOL    HW131456   0.360   4.437   4.239  0.4745  0.1007  0.5986
10005SOL    HW231457   0.455   4.555   4.246 -0.0165  0.5965 -0.7503
10006SOL     OW31458   3.001   6.440   1.273 -0.2245  0.4647 -0.0580
10006SOL    HW131459   3.095   6.461   1.277 -0.4434  1.3051  0.9259
10006SOL    HW231460   2.980   6.448   1.180  0.3636  1.7730 -0.1045
10007SOL     OW31461   6.436   3.025   4.921  0.1979 -0.0691 -0.1083
10007SOL    HW131462   6.409   2.949   4.869  0.9894 -1.0283  0.8395
10007SOL    HW231463   6.359   3.048   4.972 -0.6279  0.9493 -1.7237
10008SOL     OW31464   1.556   3.610   1.435  0.5862  0.4038 -0.3491
10008SOL    HW131465   1.574   3.554   1.360  1.4643 -0.6815  0.6410
10008SOL    HW231466   1.642   3.631   1.471  0.2049  1.3575  0.0473
10009SOL     OW31467   7.312   4.736  10.964  0.0616  0.5888  0.2442
10009SOL    HW131468   7.362   4.799  10.911 -0.0567 -0.1799 -0.8158
10009SOL    HW231469   7.365   4.656  10.962 -1.7131 -0.6349 -1.9198
10010SOL     OW31470   6.160   2.432   8.379  0.2602 -0.6882  0.7262
10010SOL    HW131471   6.132   2.489   8.451  0.5399 -0.6345  0.7935
10010SOL    HW231472   6.251   2.412   8.399  0.7955  0.5287 -0.3924
10011SOL     OW31473   3.278   5.932   8.486 -0.5171  0.3417 -0.3811
10011SOL    HW131474   3.224   5.891   8.419 -0.4968 -1.1176  0.4426
10011SOL    HW231475   3.355   5.964   8.439 -1.6055  1.5904 -1.4155
10012SOL     OW31476   5.338   5.556  10.733 -0.5327  0.0289  0.0318
10012SOL    HW131477   5.342   5.587  10.643 -0.0945  0.9875  0.3667
10012SOL    HW231478   5.276   5.483  10.730 -2.5904  1.6855 -0.5968
10013SOL     OW31479   6.990   7.905   3.465  0.0183  0.4518 -0.7386
10013SOL    HW131480   6.894   7.908   3.468  0.0227  1.9478 -1.2825
10013SOL    HW231481   7.011   7.920   3.373  0.7906  0.0761 -0.6314
10014SOL     OW31482   5.271   5.386   8.974 -0.1717  0.6226  0.0003
10014SOL    HW131483   5.209   5.315   8.961  2.9157 -2.0765 -1.4694
10014SOL    HW231484   5.296   5.413   8.885  1.2353  1.1080  0.5073
10015SOL     OW31485   2.171   1.479   8.651  0.1567  0.0540 -0.1987
10015SOL    HW131486   2.168   1.418   8.724  0.7603  0.8275  0.4927
10015SOL    HW231487   2.197   1.427   8.576 -0.0786 -0.6753  0.2199
10016SOL     OW31488   2.272   3.545  11.136 -0.2157  0.4824  0.4404
10016SOL    HW131489   2.243   3.623  11.087 -0.2189  1.3574  1.7885
10016SOL    HW231490   2.342   3.508  11.082 -1.7834  0.0211 -1.4132
10017SOL     OW31491   4.613   5.590   3.623 -0.4525  0.2700 -0.6138
10017SOL    HW131492   4.685   5.527   3.622 -1.0552 -0.4352 -1.4395
10017SOL    HW231493   4.646   5.665   3.574  0.1018  0.4086 -0.0373
10018SOL     OW31494   2.267   1.254   0.425 -0.1701 -0.0795 -0.3104
10018SOL    HW131495   2.282   1.347   0.444  1.2798  0.0886 -1.9767
10018SOL    HW231496   2.294   1.244   0.334 -1.2439 -1.9584 -0.4684
10019SOL     OW31497   3.412   3.316  11.439 -0.5199 -0.2799  0.3625
10019SOL    HW131498   3.467   3.255  11.489  2.0883  1.0555 -0.6661
10019SOL    HW231499   3.405   3.276  11.352  0.1292  0.2595  0.0551
10020SOL     OW31500   6.913   0.217  10.153 -0.0815  0.0469 -0.1348
10020SOL    HW131501   6.992   0.248  10.108  0.3411 -0.4437  0.2554
10020SOL    HW231502   6.895   0.132  10.114  0.6545 -0.6699  1.0378
10021SOL     OW31503   1.008   7.546   2.620  0.3984  0.0220  1.0413
10021SOL    HW131504   0.964   7.513   2.698  3.2601  1.4042  3.4114
10021SOL    HW231505   1.067   7.475   2.594  0.6222  0.1734  1.1339
10022SOL     OW31506   6.082   2.555  12.162 -0.0915  0.0417  0.0466
10022SOL    HW131507   6.001   2.506  12.170 -0.6852  0.9753 -0.0800
10022SOL    HW231508   6.114   2.562  12.252 -1.8462  2.3981  0.5989
10023SOL     OW31509   2.633   0.158   3.044  0.4387  0.4014  0.9324
10023SOL    HW131510   2.668   0.201   2.965  0.1735  0.0239  0.6045
10023SOL    HW231511   2.674   0.204   3.117  0.1405  1.2319  0.5871
10024SOL     OW31512   4.155   2.975  10.521 -0.7293  0.2443  0.0377
10024SOL    HW131513   4.235   3.006  10.478  0.0926  0.7458  1.8346
10024SOL    HW231514   4.122   3.052  10.567 -2.8683  0.3195 -1.4697
10025SOL     OW31515   6.663   4.363   2.297  0.2790 -0.5196 -0.1123
10025SOL    HW131516   6.648   4.270   2.281  2.1486 -0.9895  0.5599
10025SOL    HW231517   6.598   4.387   2.362  1.4187 -2.0753  1.7262
10026SOL     OW31518   3.969   1.328  11.450 -0.2077 -0.0312  0.4199
10026SOL    HW131519   4.046   1.283  11.416 -0.6637 -0.0894 -0.5639
10026SOL    HW231520   3.933   1.268  11.515  0.1505 -0.3384  0.3355
10027SOL     OW31521   2.873   4.375   1.532 -0.1245  0.1152  0.1013
10027SOL    HW131522   2.874   4.417   1.446  0.0322 -0.0896  0.0025
10027SOL    HW231523   2.783   4.386   1.563 -0.5658 -1.0501 -0.7061
10028SOL     OW31524   0.238   7.343   8.489 -0.1032 -0.5322 -0.0860
10028SOL    HW131525   0.214   7.342   8.582 -1.1610  0.8054 -0.3121
10028SOL    HW231526   0.221   7.433   8.461 -2.7989 -1.5785 -2.3148
10029SOL     OW31527   5.461   6.127   4.553 -0.0818  0.0320 -0.3127
10029SOL    HW131528   5.440   6.034   4.561 -1.5366  0.5042  2.2989
10029SOL    HW231529   5.515   6.147   4.629 -1.5285  1.7346  0.3313
10030SOL     OW31530   0.019   1.924  10.190  0.4314  0.4258  0.1578
10030SOL    HW131531   0.060   2.000  10.150  0.2635 -0.1874 -1.2796
10030SOL    HW231532   0.085   1.855  10.183  0.3356  0.2691  0.8120
10031SOL     OW31533   7.766   4.169   6.743  0.1426  0.1861 -0.1923
10031SOL    HW131534   7.747   4.212   6.660 -0.1674  0.6460  0.1142
10031SOL    HW231535   7.735   4.230   6.809  0.7448 -0.0049  0.2730
10032SOL     OW31536   4.486   1.149   7.657  0.9352  0.1561  0.3949
10032SOL    HW131537   4.504   1.157   7.750 -1.3850  1.0294  0.8202
10032SOL    HW231538   4.480   1.240   7.625  1.4363 -0.1271 -0.5737
10033SOL     OW31539   7.628   2.670   7.742  0.4316 -0.3781  0.0924
10033SOL    HW131540   7.624   2.650   7.649  0.5297 -1.2406  0.2699
10033SOL    HW231541   7.542   2.708   7.762 -0.2590 -1.8231  0.0079
10034SOL     OW31542   0.035   3.409   1.516 -0.1241  0.1568  0.5007
10034SOL    HW131543  -0.057   3.418   1.492 -0.2586  0.1928  1.0365
10034SOL    HW231544   0.045   3.317   1.541 -0.1934  0.3321  1.1896
10035SOL     OW31545   7.309   2.818   5.645 -0.4900 -0.1271 -0.2113
10035SOL    HW131546   7.273   2.844   5.560 -0.2767 -0.5619 -0.4402
10035SOL    HW231547   7.246   2.850   5.709 -0.0388  1.3199 -0.4449
10036SOL     OW31548   0.407   2.368  10.545 -0.0421  0.0591  0.2377
10036SOL    HW131549   0.469   2.304  10.511  0.3589  0.0345  1.0057
10036SOL    HW231550   0.334   2.366  10.482  0.6077 -0.0968 -0.5212
10037SOL     OW31551   5.861   6.482   5.771  0.2761 -0.1533 -0.2591
10037SOL    HW131552   5.821   6.564   5.801  0.5645  0.0841 -0.5122
10037SOL    HW231553   5.852   6.486   5.675  1.6596  0.3071 -0.3907
10038SOL     OW31554   4.542   1.680   9.190 -0.5570  0.6587 -0.1686
10038SOL    HW131555   4.625   1.673   9.142 -0.1600  3.1065  0.0248
10038SOL    HW231556   4.563   1.735   9.266 -1.9476 -0.2703  0.9384
10039SOL     OW31557   4.371   6.033  11.862  0.0900 -0.6106 -0.6547
10039SOL    HW131558   4.311   5.974  11.906  0.2826 -2.3774 -2.6092
10039SOL    HW231559   4.458   5.995  11.877  0.7511  1.4497  1.4291
10040SOL     OW31560   0.564   4.496   5.437 -0.6159  0.2096 -0.4564
10040SOL    HW131561   0.475   4.511   5.471 -0.4233 -0.7508  0.5146
10040SOL    HW231562   0.550   4.458   5.350 -1.1813 -0.7597  0.0437
10041SOL     OW31563   7.304   2.966  11.257  0.3257 -0.1183  0.5173
10041SOL    HW131564   7.359   2.969  11.178  1.2841  2.6449  1.1606
10041SOL    HW231565   7.241   3.037  11.245  0.0022 -0.1448  1.8957
10042SOL     OW31566   0.784   2.138   6.424  0.2846 -0.2668 -1.0442
10042SOL    HW131567   0.746   2.106   6.506 -0.3522 -0.1156 -1.2827
10042SOL    HW231568   0.814   2.058   6.380  1.3519 -0.2955 -0.3231
10043SOL     OW31569   2.411   6.361   5.738 -0.1028 -0.0581  0.0262
10043SOL    HW131570   2.471   6.301   5.782 -0.5587 -0.3898  0.2018
10043SOL    HW231571   2.333   6.362   5.794 -0.4658 -0.0343 -0.4677
10044SOL     OW31572   0.696   0.529   6.678 -0.0136 -0.4793 -0.1547
10044SOL    HW131573   0.672   0.483   6.598  0.1993 -0.9147  0.0294
10044SOL    HW231574   0.756   0.598   6.649 -0.8120  0.0839 -0.5087
10045SOL     OW31575   5.847   2.967  11.813  0.2612  0.3337 -0.0266
10045SOL    HW131576   5.832   3.061  11.801 -1.9455  0.4089  2.4017
10045SOL    HW231577   5.938   2.955  11.789  0.1852  2.7600 -2.0292
10046SOL     OW31578   3.908   6.048  12.229  0.0790 -0.0297  0.7198
10046SOL    HW131579   3.836   5.996  12.194  0.1652 -0.2554  0.8687
10046SOL    HW231580   3.986   6.010  12.188  0.0644  0.6400  0.0523
10047SOL     OW31581   4.030   2.557   3.752 -0.0984  0.0558 -0.1060
10047SOL    HW131582   3.995   2.553   3.663  0.1357  0.8677 -0.2402
10047SOL    HW231583   4.122   2.532   3.742  0.1394  0.9307 -0.2290
10048SOL     OW31584   6.033   5.853  10.226  0.0456  0.3165 -0.0579
10048SOL    HW131585   6.041   5.771  10.177  0.5042 -0.2037  0.8799
10048SOL    HW231586   6.058   5.831  10.315 -3.6246  0.5567  1.1712
10049SOL     OW31587   2.214   1.931   8.515  0.0199  0.5164 -0.1458
10049SOL    HW131588   2.226   1.884   8.433  0.3151 -0.0182  0.1991
10049SOL    HW231589   2.294   1.983   8.526 -0.5872  1.6553 -0.8672
10050SOL     OW31590   5.654   6.465   6.096  0.2460 -0.0450 -0.4113
10050SOL    HW131591   5.687   6.534   6.038 -0.8081  0.1920 -0.7565
10050SOL    HW231592   5.677   6.495   6.184  0.2386  0.5093 -0.5926
10051SOL     OW31593   4.195   6.966   8.800 -0.1803 -0.2494 -0.0909
10051SOL    HW131594   4.225   6.876   8.786 -0.5566 -0.3450 -0.3050
10051SOL    HW231595   4.244   6.997   8.875  1.0900 -0.1046 -0.9494
10052SOL     OW31596   5.472   0.072   9.244  0.0664 -0.6119 -0.0725
10052SOL    HW131597   5.428  -0.011   9.264  1.1348 -0.7561  1.8663
10052SOL    HW231598   5.565   0.054   9.258  0.5388  0.3773 -1.6750
10053SOL     OW31599   4.206   2.517   7.254  0.5354 -0.3288 -0.3878
10053SOL    HW131600   4.114   2.496   7.267  0.9626 -2.0515  0.1292
10053SOL    HW231601   4.209   2.562   7.169 -0.7875 -0.0018 -0.2834
10054SOL     OW31602   7.264   3.942   5.691 -0.6434  0.2776 -0.1995
10054SOL    HW131603   7.229   4.027   5.664 -0.8973  0.2515  0.0420
10054SOL    HW231604   7.343   3.964   5.740 -1.2388  0.4445  0.7239
10055SOL     OW31605   5.108   4.796   8.774  0.0525 -1.2756 -0.0659
10055SOL    HW131606   5.118   4.795   8.869  0.6812  0.4901 -0.0755
10055SOL    HW231607   5.125   4.706   8.747 -2.1160 -2.2861  1.6474
10056SOL     OW31608   3.508   0.317   2.079 -0.1187  0.3019  0.0348
10056SOL    HW131609   3.579   0.257   2.054 -0.7433 -0.0953 -0.8252
10056SOL    HW231610   3.455   0.268   2.141 -1.1909 -0.4470 -1.4068
10057SOL     OW31611   5.476   5.188   5.692 -0.0818  0.1157  0.1352
10057SOL    HW131612   5.388   5.198   5.730  0.0207  0.2587  0.3380
10057SOL    HW231613   5.464   5.207   5.599 -0.4329 -0.7611 -0.0016
10058SOL     OW31614   3.962   1.978   1.644 -0.3272 -0.4935 -0.8508
10058SOL    HW131615   3.959   2.044   1.713  1.5363 -1.5524  0.3372
10058SOL    HW231616   3.954   2.027   1.562 -1.4772  0.9013  0.0506
10059SOL     OW31617   6.004   5.647   5.270 -0.0026  0.2835  0.9085
10059SOL    HW131618   5.934   5.641   5.336  0.7090 -0.4020  1.6121
10059SOL    HW231619   6.010   5.740   5.250 -1.3365  0.3292  0.5886
10060SOL     OW31620   2.658   1.119   1.984  0.3000  0.5406  0.1167
10060SOL    HW131621   2.749   1.108   1.954  0.9342  1.7451  1.4588
10060SOL    HW231622   2.645   1.213   1.985 -0.5263  0.4305  1.1777
10061SOL     OW31623   0.559   4.726   9.960  0.5928 -0.3109  0.1937
10061SOL    HW131624   0.564   4.646   9.908  1.2124  0.3766 -0.8543
10061SOL    HW231625   0.535   4.794   9.896 -2.0986  0.0223  1.4050
10062SOL     OW31626   7.500   0.554   3.618 -0.2550  0.2798  0.3872
10062SOL    HW131627   7.525   0.644   3.637  0.3481  0.3103 -0.4959
10062SOL    HW231628   7.437   0.560   3.547 -0.2270  0.0121  0.3369
10063SOL     OW31629   7.175   5.878   7.519  0.3501 -0.1802 -0.8482
10063SOL    HW131630   7.226   5.801   7.542 -1.1920 -1.2045 -0.6902
10063SOL    HW231631   7.111   5.847   7.455 -2.2325  0.1817  1.3581
10064SOL     OW31632   6.180   7.066   4.391 -0.3911  0.2840 -0.0511
10064SOL    HW131633   6.204   7.156   4.370 -1.3573  0.2661 -1.3129
10064SOL    HW231634   6.097   7.075   4.438  0.7299  0.1825  2.0765
10065SOL     OW31635   2.443   3.507  10.556  0.2959  0.5446 -0.0967
10065SOL    HW131636   2.519   3.545  10.512  2.0008 -0.2276  1.9990
10065SOL    HW231637   2.408   3.579  10.608  3.0000 -0.2532  3.1894
10066SOL     OW31638   7.348   0.291   6.979  0.3784  0.4420  0.2838
10066SOL    HW131639   7.313   0.222   6.923 -0.0653  0.3318  0.6980
10066SOL    HW231640   7.423   0.251   7.022 -0.2795 -0.0009  1.0373
10067SOL     OW31641   2.018   1.247  10.580  0.1142  0.6707  0.3143
10067SOL    HW131642   1.926   1.230  10.558  0.1799 -0.6286  0.9758
10067SOL    HW231643   2.035   1.334  10.544 -0.8952  0.2512 -1.2559
10068SOL     OW31644   3.984   7.134   8.770  0.6251 -0.0197  0.4192
10068SOL    HW131645   4.077   7.112   8.779  0.7243  0.3935  0.4109
10068SOL    HW231646   3.938   7.058   8.806  0.9425 -0.7776 -0.7195
10069SOL     OW31647   5.015   4.751   5.790 -0.0853  0.4673 -0.1319
10069SOL    HW131648   5.092   4.772   5.842  0.6354  0.2603 -1.0948
10069SOL    HW231649   5.045   4.685   5.728 -1.1684  0.0119 -0.1931
10070SOL     OW31650   1.845   5.270   2.689 -0.3393  0.6228  0.5054
10070SOL    HW131651   1.933   5.236   2.703  0.2848  1.5656 -0.9384
10070SOL    HW231652   1.834   5.337   2.757  0.5223  1.3315 -0.0409
10071SOL     OW31653   2.734   3.013  10.142  0.5799 -0.0625  0.3808
10071SOL    HW131654   2.741   3.026  10.236 -0.8066  1.7644  0.2879
10071SOL    HW231655   2.773   3.093  10.104  0.2253 -0.3190 -0.5641
10072SOL     OW31656   6.337   5.993   5.097 -0.2569  0.5326 -0.2930
10072SOL    HW131657   6.331   5.950   5.012 -1.7092 -0.5591  0.3293
10072SOL    HW231658   6.248   5.991   5.131  0.0913  1.9505  0.7900
10073SOL     OW31659   0.661   6.165   5.032 -0.1793 -0.6423 -0.3561
10073SOL    HW131660   0.588   6.106   5.014  1.2546 -2.7535  0.4124
10073SOL    HW231661   0.672   6.163   5.127  0.0493  0.7269 -0.3236
10074SOL     OW31662   5.649   3.618   5.037  0.0267  0.0266  0.5460
10074SOL    HW131663   5.737   3.581   5.025  0.0943  0.1389  0.6871
10074SOL    HW231664   5.598   3.547   5.076  0.3551  0.3066  1.5321
10075SOL     OW31665   2.039   7.673   5.450 -0.5414 -0.3884  0.3765
10075SOL    HW131666   2.013   7.581   5.460  1.0422 -0.7623  1.3659
10075SOL    HW231667   2.040   7.707   5.539 -1.0473  0.6018  0.0234
10076SOL     OW31668   2.669   6.189   6.091  0.3486 -0.5731  0.0764
10076SOL    HW131669   2.655   6.267   6.145 -1.4248 -0.9426  0.2126
10076SOL    HW231670   2.759   6.198   6.059  0.6394  0.8378  1.1715
10077SOL     OW31671   4.747   7.915   0.801  0.5356  0.1019 -0.5611
10077SOL    HW131672   4.669   7.864   0.780  0.7380  0.0080 -1.0973
10077SOL    HW231673   4.785   7.937   0.716  0.9454  0.3761 -0.3099
10078SOL     OW31674   6.047   0.310   8.436 -0.6062 -0.0142 -0.2584
10078SOL    HW131675   6.042   0.322   8.341 -0.4298 -0.3675 -0.3144
10078SOL    HW231676   6.001   0.228   8.452 -0.0362 -0.3091 -0.1164
10079SOL     OW31677   4.406   5.843   6.841 -0.2504  0.0713 -0.0602
10079SOL    HW131678   4.493   5.841   6.879  0.0879  1.7551 -0.6505
10079SOL    HW231679   4.347   5.833   6.916  0.4233 -0.5685  0.3998
10080SOL     OW31680   6.063   5.009   1.251  0.0212 -0.2869  0.3064
10080SOL    HW131681   6.033   4.962   1.173 -1.9618  1.2603  0.0354
10080SOL    HW231682   6.156   4.987   1.259  0.2626 -0.5696 -2.4385
10081SOL     OW31683   2.501   2.057   8.621 -0.8142 -0.4761 -0.1943
10081SOL    HW131684   2.535   1.976   8.585  1.9763  1.2290 -1.7895
10081SOL    HW231685   2.513   2.048   8.716 -2.4537 -2.6210 -0.1263
10082SOL     OW31686   7.769   3.056   4.396 -0.0622  0.3607  0.0827
10082SOL    HW131687   7.860   3.050   4.425  0.3793  2.4594 -0.7279
10082SOL    HW231688   7.736   3.137   4.434 -0.8638  0.8057 -1.4828
10083SOL     OW31689   5.307   0.763   4.729 -0.7156  0.3576  0.0784
10083SOL    HW131690   5.380   0.760   4.667 -0.1915  0.0169  0.7005
10083SOL    HW231691   5.331   0.831   4.792  0.3511 -1.5135  1.8097
10084SOL     OW31692   0.611   1.427  10.741  0.3103  0.0186 -0.1839
10084SOL    HW131693   0.554   1.415  10.818  1.4203 -0.0750  0.6479
10084SOL    HW231694   0.596   1.518  10.715 -0.3590 -0.0582 -0.1010
10085SOL     OW31695   0.388   3.001  10.692  0.3863  0.0703  0.5876
10085SOL    HW131696   0.295   3.024  10.698  0.3994  0.3372 -0.1486
10085SOL    HW231697   0.433   3.085  10.684  0.8405  0.0527  2.4736
10086SOL     OW31698   3.141   6.707   5.878 -0.7940  0.4016  0.1225
10086SOL    HW131699   3.195   6.786   5.879  0.3735 -0.2969 -1.9908
10086SOL    HW231700   3.058   6.735   5.838 -1.1810  0.9737  1.2782
10087SOL     OW31701   3.089   7.328   3.458 -0.4362 -0.5538  0.0049
10087SOL    HW131702   3.094   7.278   3.376  0.5401  0.4532 -0.5717
10087SOL    HW231703   2.997   7.324   3.482 -0.7284 -0.9450 -1.0957
10088SOL     OW31704   1.419   3.804   9.882  0.3084  0.2764 -0.2347
10088SOL    HW131705   1.328   3.775   9.888  0.1715  0.8486  0.7656
10088SOL    HW231706   1.415   3.898   9.900  1.0335  0.4116 -0.7492
10089SOL     OW31707   3.600   1.008  11.677  0.5751  0.1284 -0.1210
10089SOL    HW131708   3.622   1.088  11.630  0.6514  1.0699  1.4465
10089SOL    HW231709   3.668   1.000  11.744 -1.2506  0.6448  1.9248
10090SOL     OW31710   0.051   7.574  12.048 -1.0528  0.6620  0.4539
10090SOL    HW131711   0.091   7.488  12.032  0.7214  1.6330 -0.6525
10090SOL    HW231712   0.044   7.580  12.143 -0.1474 -0.2479  0.5975
10091SOL     OW31713   3.375   7.467   3.460 -0.0438 -0.4388 -0.4136
10091SOL    HW131714   3.406   7.456   3.550  0.5508 -1.0814 -0.6921
10091SOL    HW231715   3.288   7.427   3.460  0.5857 -1.8375 -0.4979
10092SOL     OW31716   2.385   3.134   7.203  0.8525  0.3806  0.1530
10092SOL    HW131717   2.314   3.098   7.256  1.2786 -1.9369 -0.7515
10092SOL    HW231718   2.352   3.131   7.113  1.1089  1.8642 -0.0231
10093SOL     OW31719   4.682   3.915   6.350 -0.0301 -0.1410 -0.5064
10093SOL    HW131720   4.698   4.004   6.318 -1.9128  0.2330 -0.5100
10093SOL    HW231721   4.588   3.902   6.338  0.0954 -1.8798  0.1604
10094SOL     OW31722   7.502   0.528   2.265  0.2212  0.0944 -0.2855
10094SOL    HW131723   7.570   0.505   2.202  0.2876  0.7237 -0.4438
10094SOL    HW231724   7.532   0.490   2.347  0.4787 -0.1229 -0.4771
10095SOL     OW31725   5.879   6.216   3.369  0.3534 -0.4674  0.3521
10095SOL    HW131726   5.876   6.134   3.417  0.7455 -2.0129 -2.0913
10095SOL    HW231727   5.972   6.240   3.369  0.4398 -0.7906 -0.1185
10096SOL     OW31728   0.122   0.380   2.712  0.2833 -0.0560 -0.4890
10096SOL    HW131729   0.186   0.442   2.677  1.9425 -0.9092  0.9325
10096SOL    HW231730   0.067   0.357   2.637  1.2669  1.1351 -1.6106
10097SOL     OW31731   0.747   7.539  10.483  0.2721  0.0601 -0.2445
10097SOL    HW131732   0.702   7.545  10.399  1.2051 -1.2194 -0.8806
10097SOL    HW231733   0.822   7.599  10.474 -0.1245  0.5988  0.0186
10098SOL     OW31734   7.187   4.861   6.173  0.0109  0.5787 -0.4517
10098SOL    HW131735   7.159   4.789   6.116  0.6249 -1.3204  1.4870
10098SOL    HW231736   7.117   4.869   6.238  0.6245  0.6846  0.2156
10099SOL     OW31737   4.437   0.887   9.033 -0.2639 -0.0915  0.2467
10099SOL    HW131738   4.462   0.950   9.101  0.0850 -0.6762  0.6678
10099SOL    HW231739   4.377   0.827   9.077  0.6995 -1.0305  0.3021
10100SOL     OW31740   3.732   0.532   3.361 -0.2560 -0.1306  0.7620
10100SOL    HW131741   3.651   0.562   3.403 -0.8927 -0.8678  0.0868
10100SOL    HW231742   3.770   0.471   3.424 -0.2142  0.2253  1.0863
10101SOL     OW31743   0.017   2.686   5.850  0.3367  0.3796 -0.0909
10101SOL    HW131744  -0.070   2.698   5.810 -0.3320 -0.1712  1.1356
10101SOL    HW231745   0.078   2.688   5.776 -0.8080 -0.1352 -1.0908
10102SOL     OW31746   5.358   5.373   2.850 -0.4583 -0.3436  0.5939
10102SOL    HW131747   5.314   5.428   2.915 -0.9923  0.5482 -0.4855
10102SOL    HW231748   5.295   5.365   2.779  1.0743  0.9611 -1.0047
10103SOL     OW31749   4.636   2.087   0.435 -0.0657 -0.2650  0.1920
10103SOL    HW131750   4.635   2.013   0.374 -1.6057 -0.1494  0.0198
10103SOL    HW231751   4.547   2.123   0.429 -0.3799 -0.4175  2.6919
10104SOL     OW31752   1.109   6.436   6.341 -0.4571  0.8784 -0.0158
10104SOL    HW131753   1.168   6.390   6.281 -1.5427 -0.8613  0.1843
10104SOL    HW231754   1.061   6.497   6.285  0.9332  1.7415 -0.3085
10105SOL     OW31755   5.260   6.787   7.634  0.0779  0.7063 -0.0062
10105SOL    HW131756   5.356   6.785   7.637  0.0561  0.6896  1.6672
10105SOL    HW231757   5.236   6.714   7.577  1.0390  0.2801  0.1128
10106SOL     OW31758   2.102   2.243  11.823  0.5902 -0.0103  0.1424
10106SOL    HW131759   2.175   2.305  11.827 -0.3020  1.0285  1.2850
10106SOL    HW231760   2.055   2.256  11.906 -1.8880  0.6013 -1.2589
10107SOL     OW31761   7.942   6.430   0.180 -0.0754  0.3876 -0.2074
10107SOL    HW131762   7.875   6.408   0.245 -0.1884  0.5440 -0.2684
10107SOL    HW231763   8.023   6.440   0.231 -0.1862  0.6178 -0.0751
10108SOL     OW31764   6.283   7.894  12.160 -0.3543 -0.2985 -0.6607
10108SOL    HW131765   6.313   7.821  12.106 -1.0980 -0.2119 -1.2185
10108SOL    HW231766   6.232   7.948  12.099 -2.3616 -0.8855  0.4073
10109SOL     OW31767   1.790   2.953   5.868  0.1678  0.0962  0.3744
10109SOL    HW131768   1.821   2.987   5.951 -0.9296 -0.2920  0.9579
10109SOL    HW231769   1.837   2.871   5.856 -0.3794 -0.3189  1.0779
10110SOL     OW31770   5.930   0.781   9.632 -0.2393  0.0018  0.3855
10110SOL    HW131771   5.952   0.822   9.715  1.2912 -2.0477  1.0606
10110SOL    HW231772   5.867   0.713   9.655 -1.3168  0.6644 -0.4583
10111SOL     OW31773   5.178   0.892   5.194  0.3943 -0.5347 -0.7292
10111SOL    HW131774   5.134   0.859   5.116 -1.3084  1.7247 -0.8472
10111SOL    HW231775   5.204   0.981   5.169  1.1453 -0.3107  0.8012
10112SOL     OW31776   6.698   5.623   9.343  1.4036 -0.5868  0.0201
10112SOL    HW131777   6.788   5.636   9.316  1.3563  0.0411  0.1362
10112SOL    HW231778   6.686   5.685   9.416  0.6284 -0.0124 -0.5781
10113SOL     OW31779   0.549   3.224  10.630  1.1445 -0.0972 -0.4239
10113SOL    HW131780   0.551   3.222  10.534  3.0572 -0.2423 -0.4209
10113SOL    HW231781   0.608   3.295  10.653  0.9723 -0.3000  0.6577
10114SOL     OW31782   5.396   1.155   7.786  0.1412 -0.1058  0.4533
10114SOL    HW131783   5.428   1.202   7.709  0.2482 -0.5926  0.1948
10114SOL    HW231784   5.341   1.085   7.750 -1.3999  0.8433  0.9044
10115SOL     OW31785   4.626   6.031  12.038 -0.2356 -0.4863 -0.1479
10115SOL    HW131786   4.549   5.996  12.083 -0.2455  0.9739  1.0303
10115SOL    HW231787   4.696   5.968  12.057 -0.7540 -0.9946  0.0969
10116SOL     OW31788   0.429   2.234   6.062 -0.5578  0.3455 -0.1810
10116SOL    HW131789   0.415   2.141   6.079 -1.3446  1.0006  3.6028
10116SOL    HW231790   0.524   2.246   6.069 -0.4759 -0.1105 -0.4646
10117SOL     OW31791   2.595   4.228   9.759  0.0766  0.6270 -0.5602
10117SOL    HW131792   2.677   4.202   9.717 -0.0853  0.1935 -0.6113
10117SOL    HW231793   2.608   4.321   9.781  0.4181  0.6776 -0.9525
10118SOL     OW31794   3.098   0.866   9.215  0.5839 -0.1881  1.0169
10118SOL    HW131795   3.004   0.879   9.207  0.5703 -0.3984  0.8266
10118SOL    HW231796   3.134   0.955   9.224  0.3913 -0.0928  0.8528
10119SOL     OW31797   1.585   4.799   5.008  0.0412 -0.2950  0.1994
10119SOL    HW131798   1.662   4.744   4.996 -0.2652 -0.4950 -0.9821
10119SOL    HW231799   1.511   4.739   4.999 -0.2774  0.1089  0.0826
10120SOL     OW31800   7.922   6.303   6.588 -0.0233 -0.3050 -0.5314
10120SOL    HW131801   7.971   6.361   6.530 -0.4537 -0.3403 -0.9446
10120SOL    HW231802   7.872   6.361   6.645  0.3664 -0.2691 -0.2318
10121SOL     OW31803   6.935   6.876   4.784  0.2864 -0.2545  0.0072
10121SOL    HW131804   6.920   6.909   4.872 -3.3697  2.7134 -1.4754
10121SOL    HW231805   6.883   6.796   4.779  1.4247 -1.0812  0.7723
10122SOL     OW31806   0.351   1.321   0.998 -0.6459  0.6282  0.1221
10122SOL    HW131807   0.292   1.396   1.007 -0.1031  1.1687 -0.6568
10122SOL    HW231808   0.429   1.347   1.046 -1.5346 -0.6766  2.3920
10123SOL     OW31809   3.685   3.820   1.662 -0.0144  0.9858  0.0921
10123SOL    HW131810   3.762   3.788   1.709  0.2755 -0.4240 -1.2498
10123SOL    HW231811   3.707   3.808   1.569 -1.8854  0.4132 -0.3231
10124SOL     OW31812   3.572   4.832   2.073 -0.6246 -0.2286  0.6093
10124SOL    HW131813   3.647   4.773   2.076 -0.0173  0.4351 -0.6069
10124SOL    HW231814   3.566   4.859   1.981 -0.1750  2.4600  1.2732
10125SOL     OW31815   7.516   7.872   6.575 -0.4164 -1.1038 -0.2463
10125SOL    HW131816   7.607   7.873   6.544  0.5106  0.2317  2.1958
10125SOL    HW231817   7.494   7.779   6.580  0.7749 -1.4588 -1.0004
10126SOL     OW31818   6.161   6.092  10.668 -0.0014  0.2153 -0.2038
10126SOL    HW131819   6.098   6.154  10.703  0.1017 -1.2071  2.8095
10126SOL    HW231820   6.204   6.056  10.745  3.5908  0.1194 -2.0288
10127SOL     OW31821   5.375   7.665   6.186 -0.0787 -0.5383  0.3610
10127SOL    HW131822   5.452   7.623   6.225 -0.8860 -2.6705 -0.2132
10127SOL    HW231823   5.302   7.610   6.214 -0.9554 -0.7297 -2.1064
10128SOL     OW31824   7.753   6.740  12.227  0.3540  0.6301  0.3303
10128SOL    HW131825   7.783   6.831  12.235  3.6232 -0.1581 -1.1889
10128SOL    HW231826   7.813   6.700  12.164 -0.6551 -2.7312  1.2732
10129SOL     OW31827   6.159   2.520   9.385  0.2542 -0.1309  0.0469
10129SOL    HW131828   6.134   2.451   9.324  0.4680 -1.0975  1.0133
10129SOL    HW231829   6.089   2.585   9.379 -0.0199 -0.4987 -0.7797
10130SOL     OW31830   0.643   0.565   8.170 -0.0469 -0.1278  0.0348
10130SOL    HW131831   0.721   0.615   8.149 -0.2574  0.5293  0.7540
10130SOL    HW231832   0.618   0.523   8.088  0.7668  0.0582 -0.3149
10131SOL     OW31833   6.727   1.208   9.409 -0.1074 -0.0307 -0.2694
10131SOL    HW131834   6.753   1.299   9.397 -0.7445  0.1144 -0.6232
10131SOL    HW231835   6.746   1.189   9.501  0.3210  0.3628 -0.2757
10132SOL     OW31836   3.823   4.369   2.042  0.7459 -0.0663  0.2973
10132SOL    HW131837   3.838   4.291   2.096 -0.8501  0.8966  2.2510
10132SOL    HW231838   3.891   4.430   2.070 -0.0082  0.3894  1.1863
10133SOL     OW31839   4.233   4.642   2.480  0.3951 -0.1954 -0.1562
10133SOL    HW131840   4.287   4.707   2.434  0.6726  1.3933  2.2420
10133SOL    HW231841   4.280   4.559   2.468  1.6379  0.5751 -0.8231
10134SOL     OW31842   1.934   4.107   9.997 -0.2328  0.1425  0.7974
10134SOL    HW131843   1.907   4.162  10.071  1.7612  1.8819  0.3346
10134SOL    HW231844   1.925   4.164   9.921  1.4861 -0.2738  0.2417
10135SOL     OW31845   6.212   6.985   8.623  0.4898  0.2546 -0.5849
10135SOL    HW131846   6.117   6.981   8.626  0.5342 -0.4527  0.4578
10135SOL    HW231847   6.232   7.024   8.538 -0.7474  1.5029 -0.3323
10136SOL     OW31848   7.750   3.261  12.314  0.0009 -0.1801  0.1747
10136SOL    HW131849   7.684   3.202  12.349  0.9733 -0.6741  1.2547
10136SOL    HW231850   7.702   3.318  12.255 -0.9774 -2.0537 -0.9331
10137SOL     OW31851   3.794   5.147   7.309  0.1287 -0.2800  0.0269
10137SOL    HW131852   3.784   5.060   7.347  0.9115  0.2925  1.6255
10137SOL    HW231853   3.851   5.134   7.233  0.2345 -1.1604  0.2545
10138SOL     OW31854   7.026   4.138   2.847  0.0058  0.1765  0.2622
10138SOL    HW131855   7.054   4.176   2.764 -0.0668  0.0866  0.1971
10138SOL    HW231856   6.962   4.072   2.823  0.8242 -0.6464  0.3090
10139SOL     OW31857   2.804   7.420   4.822 -0.6409  0.1702  0.9367
10139SOL    HW131858   2.740   7.488   4.805 -0.4484  0.7519  2.3525
10139SOL    HW231859   2.883   7.468   4.850 -0.5120 -0.6074  1.9801
10140SOL     OW31860   7.083   6.981   3.160 -0.2187 -0.5104  0.0843
10140SOL    HW131861   6.988   6.970   3.165 -0.2860 -0.3164 -0.6026
10140SOL    HW231862   7.119   6.906   3.207 -0.7104 -1.3186 -0.7830
10141SOL     OW31863   6.535   1.466  11.798  0.0022 -0.5322  0.2564
10141SOL    HW131864   6.589   1.420  11.735  2.3307  1.0197  0.9861
10141SOL    HW231865   6.559   1.428  11.883  1.6060  1.5343  0.8118
10142SOL     OW31866   5.436   2.609  11.330  0.3333  0.3352  0.7434
10142SOL    HW131867   5.503   2.640  11.391 -2.2659  2.3922  2.7811
10142SOL    HW231868   5.407   2.525  11.367  1.1867 -0.1785  0.2849
10143SOL     OW31869   0.791   2.865   4.189 -0.2388  0.4958  0.3599
10143SOL    HW131870   0.772   2.815   4.268 -1.4336 -0.9976 -0.8161
10143SOL    HW231871   0.883   2.849   4.172 -0.5693 -1.2704  0.0706
10144SOL     OW31872   4.275   6.453   4.549  0.0116  0.2560 -0.1179
10144SOL    HW131873   4.297   6.495   4.632  0.3243 -0.4911  0.1838
10144SOL    HW231874   4.183   6.427   4.559 -0.0172  0.3719 -0.0883
10145SOL     OW31875   6.199   6.944  11.740 -0.3442  0.3691 -0.5560
10145SOL    HW131876   6.117   6.993  11.746  0.0025  1.0150 -1.0566
10145SOL    HW231877   6.267   7.007  11.763 -0.0698 -0.5210  1.3131
10146SOL     OW31878   1.889   6.623  10.343  0.2425 -0.4524  0.1089
10146SOL    HW131879   1.893   6.665  10.258  1.6430 -0.3751  0.1927
10146SOL    HW231880   1.973   6.642  10.384  0.4506 -2.2979  0.6373
10147SOL     OW31881   0.754   3.838  12.337  0.2503  0.6279  0.9295
10147SOL    HW131882   0.740   3.849  12.431  1.7598 -1.5220  1.4904
10147SOL    HW231883   0.823   3.772  12.331 -0.4426  0.0200 -1.7001
10148SOL     OW31884   3.430   6.430   3.594  0.0330  0.5511 -0.5774
10148SOL    HW131885   3.341   6.465   3.601  0.3603  1.4210 -0.6942
10148SOL    HW231886   3.450   6.401   3.683 -0.3486  0.3946 -0.5391
10149SOL     OW31887   4.447   1.250   2.259 -0.3846  0.4086  0.7299
10149SOL    HW131888   4.468   1.329   2.209  0.2106  1.0161  1.9194
10149SOL    HW231889   4.355   1.234   2.238  0.1059  0.0120 -1.3892
10150SOL     OW31890   4.593   4.780  11.672 -0.6563  0.2422 -0.4704
10150SOL    HW131891   4.621   4.768  11.762  1.3685  1.6419 -0.8324
10150SOL    HW231892   4.554   4.697  11.647 -0.0091 -0.6223  1.2641
10151SOL     OW31893   0.376   7.206   7.328  0.2010  0.2098  0.0506
10151SOL    HW131894   0.448   7.149   7.355 -0.5765 -0.6939  0.2502
10151SOL    HW231895   0.366   7.268   7.400 -0.4840 -0.8802  0.9345
10152SOL     OW31896   4.997   1.007   6.282 -0.8242 -0.2859 -0.1653
10152SOL    HW131897   4.950   0.968   6.208  0.1937  0.2907 -1.1534
10152SOL    HW231898   5.049   0.935   6.319  1.2758  0.0939 -2.1605
10153SOL     OW31899   0.398   7.933  12.235  0.0735 -1.2644 -0.3727
10153SOL    HW131900   0.321   7.921  12.290  0.6466 -0.7426  0.5540
10153SOL    HW231901   0.378   7.883  12.155 -1.0527 -1.4495  0.0106
10154SOL     OW31902   6.958   4.423  11.132 -0.0805 -0.2518  0.3100
10154SOL    HW131903   7.037   4.368  11.135  0.6844  0.8000 -0.0993
10154SOL    HW231904   6.932   4.432  11.224  0.8350  0.1803  0.5308
10155SOL     OW31905   3.048   2.609  11.290  0.0583  0.2727 -0.2599
10155SOL    HW131906   3.006   2.694  11.277  0.1606  0.5925  1.3766
10155SOL    HW231907   3.009   2.574  11.370 -0.4582 -1.5414 -1.2393
10156SOL     OW31908   2.311   5.667   6.721  0.3731  0.1949 -0.2400
10156SOL    HW131909   2.314   5.688   6.814 -0.5642  0.4427 -0.2612
10156SOL    HW231910   2.402   5.645   6.699  1.3239  3.2808  0.0252
10157SOL     OW31911   5.182   4.873  11.137  0.0561  0.3633 -0.0528
10157SOL    HW131912   5.137   4.945  11.094 -1.9662 -1.5508 -1.3342
10157SOL    HW231913   5.144   4.870  11.225 -2.1546 -0.9284 -0.9648
10158SOL     OW31914   7.275   1.070  11.158 -0.0695 -0.3536  0.2873
10158SOL    HW131915   7.212   1.031  11.097 -1.1418  0.1978  1.0219
10158SOL    HW231916   7.359   1.067  11.111 -0.6925 -0.8215 -0.8249
10159SOL     OW31917   1.526   6.710   2.993 -0.1087 -0.1824  0.0473
10159SOL    HW131918   1.557   6.793   3.030  0.9931 -0.4982 -0.1361
10159SOL    HW231919   1.431   6.720   2.989 -0.0453  0.8214  0.6271
10160SOL     OW31920   3.567   7.213   3.685 -0.6231 -0.5497 -0.6005
10160SOL    HW131921   3.566   7.168   3.601  0.2426 -0.2539 -0.7717
10160SOL    HW231922   3.628   7.164   3.739 -0.8640 -0.4964 -0.2735
10161SOL     OW31923   1.240   4.711  11.039  0.6773 -0.6314 -0.4979
10161SOL    HW131924   1.325   4.717  11.082  0.4465 -0.8556 -0.0022
10161SOL    HW231925   1.245   4.629  10.989  0.7072 -0.7130 -0.3634
10162SOL     OW31926   2.726   0.065   9.627 -0.0802  0.0174 -0.3288
10162SOL    HW131927   2.689  -0.002   9.569 -0.1790 -0.2145 -0.0014
10162SOL    HW231928   2.820   0.045   9.629 -0.0482  0.1404 -0.5559
10163SOL     OW31929   6.100   1.101   1.450  0.3325 -0.4519 -0.2016
10163SOL    HW131930   6.117   1.047   1.528 -0.4721 -1.1240 -0.4651
10163SOL    HW231931   6.040   1.169   1.481 -0.2363 -0.9031 -0.2834
10164SOL     OW31932   1.338   7.090  10.430  0.2626  0.1766  0.8046
10164SOL    HW131933   1.351   7.138  10.512  3.2459  1.9314 -0.5570
10164SOL    HW231934   1.408   7.025  10.428 -0.7202 -0.9196  0.2891
10165SOL     OW31935   1.686   1.062   6.454  0.4171 -0.5201  0.6467
10165SOL    HW131936   1.706   0.969   6.465 -1.0804 -0.6974  2.3101
10165SOL    HW231937   1.763   1.107   6.487  1.7553 -1.1232 -1.4844
10166SOL     OW31938   3.509   4.698  11.510 -0.4132  0.1052 -0.7707
10166SOL    HW131939   3.555   4.630  11.560 -0.6964 -0.5018 -1.3214
10166SOL    HW231940   3.416   4.681  11.527 -0.4554  1.6746  0.7994
10167SOL     OW31941   5.470   0.716   6.846  0.4098 -0.4277  0.0093
10167SOL    HW131942   5.445   0.781   6.912  1.0684 -0.8780  0.7171
10167SOL    HW231943   5.397   0.715   6.784  0.2920  0.8258  0.0995
10168SOL     OW31944   0.887   1.567   0.057  0.2257  0.2122 -0.4462
10168SOL    HW131945   0.954   1.531  -0.001  0.1013  0.8959 -1.0343
10168SOL    HW231946   0.820   1.602  -0.002 -0.6592 -0.4508  0.1318
10169SOL     OW31947   4.352   1.594   4.826 -0.0561 -0.1931 -0.5283
10169SOL    HW131948   4.418   1.582   4.894 -0.0711 -0.9815 -0.6414
10169SOL    HW231949   4.293   1.661   4.861  0.3567 -0.0548 -0.0890
10170SOL     OW31950   4.720   2.976  12.423  0.1526 -0.4846 -0.1029
10170SOL    HW131951   4.813   2.972  12.445  0.2389  0.9908 -0.0472
10170SOL    HW231952   4.678   3.009  12.502 -0.2175  0.1177 -0.5370
10171SOL     OW31953   4.259   7.699  11.149  0.5287 -0.7956 -0.1271
10171SOL    HW131954   4.199   7.664  11.083 -0.1021 -1.0597  0.5759
10171SOL    HW231955   4.212   7.774  11.187  0.0873 -1.7603  1.3009
10172SOL     OW31956   4.334   4.661   0.298  0.1210  0.5010 -0.0929
10172SOL    HW131957   4.404   4.676   0.362  0.1160  0.8422 -0.1691
10172SOL    HW231958   4.375   4.607   0.230  0.0262 -0.1852  0.3822
10173SOL     OW31959   6.340   6.002   9.234 -0.0825 -0.2171  0.5731
10173SOL    HW131960   6.343   6.072   9.299 -1.5278 -1.5335  2.1424
10173SOL    HW231961   6.258   6.018   9.186 -0.3336 -0.7156  0.8275
10174SOL     OW31962   7.009   4.284   8.398  0.1206 -0.2735  0.3321
10174SOL    HW131963   7.020   4.301   8.491  0.8650 -1.3445  0.4568
10174SOL    HW231964   7.085   4.325   8.357 -0.1512  0.1064  0.2066
10175SOL     OW31965   3.770   3.646  10.385 -0.3331 -0.4046  0.3158
10175SOL    HW131966   3.843   3.667  10.328 -1.1565  0.5318 -0.4491
10175SOL    HW231967   3.801   3.574  10.439  0.7598 -0.7660 -0.7476
10176SOL     OW31968   3.383   6.008   8.767  0.4403 -0.4629  0.0610
10176SOL    HW131969   3.378   5.912   8.775  0.9791 -0.4758  0.3198
10176SOL    HW231970   3.330   6.028   8.690 -0.7591 -0.8349  0.7694
10177SOL     OW31971   4.034   4.256   9.906 -0.1764  0.8470 -0.3936
10177SOL    HW131972   4.017   4.314   9.980 -0.1323  1.5000 -0.8863
10177SOL    HW231973   4.061   4.314   9.835 -0.5747  0.2712 -1.0354
10178SOL     OW31974   0.966   0.534   2.204 -0.0734  0.5117  0.4966
10178SOL    HW131975   1.057   0.544   2.233 -0.0229  1.4685  0.0311
10178SOL    HW231976   0.967   0.455   2.151  0.6933  1.0087 -0.2656
10179SOL     OW31977   3.563   7.402   8.466 -0.2836  0.5354  0.4269
10179SOL    HW131978   3.481   7.438   8.500 -0.6018  0.0504  0.1749
10179SOL    HW231979   3.630   7.443   8.520 -0.7184  0.5865  0.9420
10180SOL     OW31980   2.234   1.370   4.991 -0.1331 -0.5037  0.0108
10180SOL    HW131981   2.168   1.305   4.969 -0.9880  0.2969  0.1795
10180SOL    HW231982   2.264   1.403   4.906 -1.6921  0.8508 -0.0435
10181SOL     OW31983   0.886   1.621   2.587  0.0506 -0.2944  0.2526
10181SOL    HW131984   0.844   1.560   2.648  0.1181 -0.1023  0.4915
10181SOL    HW231985   0.857   1.591   2.501 -0.8642  0.0431  0.4272
10182SOL     OW31986   2.854   6.584  10.105  0.1429 -0.4603 -0.2710
10182SOL    HW131987   2.853   6.587  10.201 -0.6829  1.2957 -0.3052
10182SOL    HW231988   2.938   6.544  10.084  0.6485 -0.2387  1.1759
10183SOL     OW31989   3.090   4.899   5.236 -0.3176 -0.5774  0.1777
10183SOL    HW131990   3.033   4.833   5.198 -0.2506 -1.3644  1.4094
10183SOL    HW231991   3.165   4.850   5.269 -0.1085  0.1455  0.8120
10184SOL     OW31992   2.986   1.858  10.098 -0.0194 -0.1168 -0.1151
10184SOL    HW131993   3.072   1.816  10.106  0.6330  1.3294  0.8266
10184SOL    HW231994   2.969   1.894  10.185 -0.4064  1.8193 -0.9447
10185SOL     OW31995   2.532   7.720   7.479  0.6894  0.2291  0.5186
10185SOL    HW131996   2.582   7.652   7.524  1.8383  0.1993 -0.7551
10185SOL    HW231997   2.582   7.739   7.400 -0.8319  0.8939 -0.3339
10186SOL     OW31998   4.091   4.409   2.215 -0.2253 -0.4627 -0.2648
10186SOL    HW131999   4.178   4.402   2.254 -0.8264 -1.2195  1.0113
10186SOL    HW232000   4.073   4.503   2.215  0.2354 -0.3690  0.2887
10187SOL     OW32001   4.584   1.910   1.532  0.7399  0.3034 -0.3970
10187SOL    HW132002   4.585   1.906   1.627  0.7398  0.2182 -0.4008
10187SOL    HW232003   4.502   1.866   1.507 -0.0860  1.7686 -0.3616
10188SOL     OW32004   4.153   1.668  10.009 -0.2609  0.4808 -0.1261
10188SOL    HW132005   4.166   1.663  10.103 -1.1323 -0.7013 -0.0539
10188SOL    HW232006   4.061   1.693   9.998 -0.1474  0.6928 -0.6691
10189SOL     OW32007   5.759   6.853   7.954 -0.1122 -0.2653  0.2690
10189SOL    HW132008   5.675   6.820   7.987  0.4448 -0.3969  1.6492
10189SOL    HW232009   5.752   6.948   7.962  0.2184 -0.3178  1.3410
10190SOL     OW32010   0.299   0.680   7.914 -0.1424  0.7593  0.3001
10190SOL    HW132011   0.313   0.663   8.008 -0.0439  0.7052  0.2757
10190SOL    HW232012   0.334   0.602   7.871 -1.2878  0.2408  0.2858
10191SOL     OW32013   5.760   0.850   8.399  0.2581  0.1932  0.0040
10191SOL    HW132014   5.797   0.819   8.481  0.9431  1.3526  0.1505
10191SOL    HW232015   5.830   0.900   8.358 -0.5754  0.9361 -0.5479
10192SOL     OW32016   4.352   3.883   2.077 -0.2924 -0.5265 -0.0041
10192SOL    HW132017   4.397   3.799   2.086 -1.3390 -1.0519  0.5544
10192SOL    HW232018   4.397   3.942   2.137  0.4055 -0.6968 -0.3508
10193SOL     OW32019   6.381   2.341   6.026  0.3704  0.1186 -0.3435
10193SOL    HW132020   6.436   2.290   5.967  0.3149  0.8229 -1.0288
10193SOL    HW232021   6.406   2.313   6.114  0.5637 -0.8376 -0.6942
10194SOL     OW32022   3.122   7.689   9.645 -0.0440 -0.2978 -0.4160
10194SOL    HW132023   3.064   7.762   9.667 -2.4775 -1.8981 -1.1205
10194SOL    HW232024   3.160   7.714   9.561 -0.2568  0.4840 -0.2919
10195SOL     OW32025   5.215   1.089   1.864 -0.1610  0.0441 -0.1062
10195SOL    HW132026   5.219   1.185   1.863  0.3394  0.0291 -0.0098
10195SOL    HW232027   5.305   1.061   1.843 -0.3130 -0.4036 -0.1756
10196SOL     OW32028   6.084   7.590  12.122  0.3689  0.1702 -0.1584
10196SOL    HW132029   6.171   7.595  12.161 -0.1513  2.1039  0.8941
10196SOL    HW232030   6.034   7.533  12.181  0.1443  1.4698  0.9663
10197SOL     OW32031   0.378   6.812   8.043 -0.2299  0.8995  0.5856
10197SOL    HW132032   0.330   6.769   8.114  0.6728 -3.1106 -0.9459
10197SOL    HW232033   0.468   6.818   8.076  0.0218 -0.2055  0.1415
10198SOL     OW32034   1.329   7.250   3.097  0.4025  0.2245 -0.6220
10198SOL    HW132035   1.422   7.228   3.086  0.2850 -1.5630  1.1758
10198SOL    HW232036   1.330   7.339   3.133  1.2136  1.3853 -3.2870
10199SOL     OW32037   5.385   1.608   9.276  0.0506 -0.0051  0.1896
10199SOL    HW132038   5.396   1.701   9.297 -0.9974  0.5370 -1.5169
10199SOL    HW232039   5.300   1.584   9.313 -0.0645 -0.0641 -0.1120
10200SOL     OW32040   0.776   1.036  12.335 -0.1054 -0.0129 -0.0662
10200SOL    HW132041   0.802   1.120  12.372 -1.6137  0.5424 -0.1881
10200SOL    HW232042   0.834   1.024  12.260  0.2923  0.7989  0.0981
10201SOL     OW32043   1.383   3.770  11.791  0.1521  0.7051 -0.3516
10201SOL    HW132044   1.377   3.728  11.876 -0.6622  1.2942 -0.1071
10201SOL    HW232045   1.399   3.698  11.730  1.2704  0.3289  0.3395
10202SOL     OW32046   6.339   6.898  10.716 -0.1182  0.0453 -0.2654
10202SOL    HW132047   6.434   6.888  10.728  0.0703 -1.8406 -2.6976
10202SOL    HW232048   6.331   6.949  10.636 -1.2267  1.1037  0.4830
10203SOL     OW32049   7.108   1.369   1.522 -0.0456  0.0522 -0.6767
10203SOL    HW132050   7.143   1.295   1.473 -1.8990 -1.0847 -0.3476
10203SOL    HW232051   7.105   1.339   1.613 -0.1231  0.8064 -0.4195
10204SOL     OW32052   4.488   0.385   0.053  0.0195  0.7899  0.0114
10204SOL    HW132053   4.460   0.439   0.127 -2.2126  2.9196 -2.2173
10204SOL    HW232054   4.524   0.447  -0.010  1.2934 -0.8911 -1.0284
10205SOL     OW32055   2.895   7.009   3.637  0.5591 -0.5272 -0.2680
10205SOL    HW132056   2.846   7.017   3.555  0.5715  0.1216 -0.2208
10205SOL    HW232057   2.974   6.960   3.613 -0.3572 -2.0979 -0.2230
10206SOL     OW32058   1.159   0.766   3.636 -0.2950 -0.2988  0.4951
10206SOL    HW132059   1.144   0.750   3.543  0.9351  1.4020 -0.0411
10206SOL    HW232060   1.073   0.792   3.670 -0.1047  2.5923 -0.9938
10207SOL     OW32061   1.563   4.121   1.485 -0.1021  0.4522  0.0813
10207SOL    HW132062   1.471   4.099   1.471  0.2016 -1.2992  0.6393
10207SOL    HW232063   1.612   4.058   1.432  0.7909  1.1651  0.0247
10208SOL     OW32064   4.118   2.389   2.629 -0.1785 -0.0741  0.4696
10208SOL    HW132065   4.065   2.390   2.550 -0.1674 -0.0835  0.4618
10208SOL    HW232066   4.056   2.403   2.701 -0.1524  0.1971  0.4402
10209SOL     OW32067   3.174   2.422   0.677  0.0308  0.5994  0.4071
10209SOL    HW132068   3.146   2.351   0.620 -0.2940  0.8604  0.2371
10209SOL    HW232069   3.093   2.463   0.706  0.1082 -0.4703  2.2913
10210SOL     OW32070   6.171   1.173   7.031  0.1164 -0.1846 -0.5653
10210SOL    HW132071   6.105   1.151   6.965  0.1593  1.7225 -1.3118
10210SOL    HW232072   6.219   1.091   7.045 -1.6768 -1.3396 -0.8127
10211SOL     OW32073   5.664   4.722   1.920 -0.5160 -0.6524 -0.0644
10211SOL    HW132074   5.668   4.780   1.996 -1.3355  0.4298 -0.8209
10211SOL    HW232075   5.756   4.702   1.901 -0.1693  0.7378 -0.0068
10212SOL     OW32076   6.588   5.933   0.657  0.2307 -0.2372  0.1154
10212SOL    HW132077   6.566   6.026   0.657 -0.6415 -0.3172  3.2537
10212SOL    HW232078   6.504   5.889   0.665  0.7891 -1.1413  1.2693
10213SOL     OW32079   6.731   2.715  10.634  0.5421  0.0819 -0.0022
10213SOL    HW132080   6.729   2.670  10.719 -1.7875  2.0451  1.0943
10213SOL    HW232081   6.702   2.649  10.571 -0.8929 -0.5395  1.2548
10214SOL     OW32082   3.307   6.169   5.242 -0.6523  0.4840  0.1391
10214SOL    HW132083   3.340   6.258   5.236  1.2372 -0.2491 -1.2964
10214SOL    HW232084   3.310   6.148   5.336 -1.1494  1.9108  0.4899
10215SOL     OW32085   4.716   3.381   7.162 -0.0562  0.0784  0.4633
10215SOL    HW132086   4.740   3.469   7.190 -1.2207 -0.0273  1.9415
10215SOL    HW232087   4.748   3.324   7.232 -0.3330 -0.5470  0.0905
10216SOL     OW32088   7.824   1.979   6.237 -0.3301 -0.0977  0.2598
10216SOL    HW132089   7.798   1.887   6.239 -0.4812 -0.3341 -3.7725
10216SOL    HW232090   7.920   1.977   6.239 -0.3399 -0.3556  0.4136
10217SOL     OW32091   0.384   3.146   2.309  0.4540 -0.3333 -0.3887
10217SOL    HW132092   0.386   3.132   2.214 -0.1899 -1.6492 -0.2308
10217SOL    HW232093   0.451   3.212   2.325  0.2256  0.2842 -1.8179
10218SOL     OW32094   6.721   6.893   4.434  0.2486  0.0268 -0.2099
10218SOL    HW132095   6.677   6.958   4.379  1.1343  2.0810  1.3668
10218SOL    HW232096   6.783   6.944   4.486  2.9010 -2.4165 -0.7161
10219SOL     OW32097   1.214   2.754  11.015 -0.7480  0.9312  0.3072
10219SOL    HW132098   1.234   2.693  10.944  1.9551  2.7485 -0.6785
10219SOL    HW232099   1.144   2.712  11.064 -0.3896 -1.9896 -1.4406
10220SOL     OW32100   3.731   4.235  10.474  0.7044  0.4626  0.4149
10220SOL    HW132101   3.712   4.141  10.469  1.3875  0.2788  0.9880
10220SOL    HW232102   3.758   4.248  10.565  1.6782  1.0012  0.0601
10221SOL     OW32103   2.377   1.265   7.414 -0.1322  0.4011 -0.0727
10221SOL    HW132104   2.352   1.240   7.503  1.4041 -0.6630  0.0861
10221SOL    HW232105   2.320   1.340   7.394 -0.0326  1.1234  2.0541
10222SOL     OW32106   3.523   0.433   8.017 -0.1294  0.2595 -0.3819
10222SOL    HW132107   3.503   0.397   8.103  0.5727 -1.6265 -0.9639
10222SOL    HW232108   3.614   0.464   8.025 -0.8418  2.3962  0.2242
10223SOL     OW32109   0.501   6.090   7.508 -0.0734  0.4606 -0.0353
10223SOL    HW132110   0.546   6.108   7.591 -0.5751  3.4304 -0.3148
10223SOL    HW232111   0.569   6.098   7.441  0.0169 -0.4008 -0.0589
10224SOL     OW32112   3.271   7.707   6.045 -0.0265  0.0170 -0.3335
10224SOL    HW132113   3.272   7.767   5.971 -1.2282 -0.0373 -0.4126
10224SOL    HW232114   3.244   7.761   6.120 -2.2241 -0.5934 -0.6108
10225SOL     OW32115   1.137   3.609   1.696  0.6293 -0.2255 -0.0834
10225SOL    HW132116   1.225   3.647   1.698  0.7135 -0.2989 -1.3895
10225SOL    HW232117   1.147   3.529   1.644 -0.6701  1.1424 -2.6768
10226SOL     OW32118   7.154   4.890   5.056 -0.4114 -0.2835  0.6443
10226SOL    HW132119   7.076   4.945   5.061 -0.2148  0.0454  0.1799
10226SOL    HW232120   7.133   4.823   4.992 -0.4327 -0.3887  0.7618
10227SOL     OW32121   7.676   6.285   2.260  0.0160 -0.5196  0.0054
10227SOL    HW132122   7.585   6.292   2.232  0.4424  1.3259 -1.1254
10227SOL    HW232123   7.684   6.346   2.333  0.5581  0.0960 -0.5533
10228SOL     OW32124   1.539   2.327  11.120 -0.5162 -0.0772  0.5453
10228SOL    HW132125   1.592   2.324  11.199 -2.0905 -1.1242  1.6119
10228SOL    HW232126   1.453   2.357  11.149 -0.7569  0.9022 -1.0194
10229SOL     OW32127   2.430   6.020   5.442  0.4057 -0.2506  0.5724
10229SOL    HW132128   2.501   5.963   5.413  0.1289 -0.7394  0.8432
10229SOL    HW232129   2.436   6.020   5.537 -0.6540 -1.2277  0.6599
10230SOL     OW32130   5.120   1.611   9.359 -0.6310 -0.6602  0.0507
10230SOL    HW132131   5.166   1.674   9.415  1.6062 -1.9433 -0.2120
10230SOL    HW232132   5.090   1.543   9.419 -1.5366 -0.1979  0.1286
10231SOL     OW32133   5.729   4.244   7.837 -0.4329 -0.1291  0.1797
10231SOL    HW132134   5.824   4.246   7.850 -0.6484 -0.9573  2.2825
10231SOL    HW232135   5.696   4.320   7.886 -0.8982 -0.3237  0.1790
10232SOL     OW32136   6.025   7.198   6.535 -0.2039 -0.0059  0.1206
10232SOL    HW132137   6.093   7.258   6.502  0.1815 -0.8652 -0.6686
10232SOL    HW232138   6.018   7.130   6.468  0.9217 -2.0574  1.9529
10233SOL     OW32139   0.443   7.513   3.576 -0.4914 -0.4220  0.0000
10233SOL    HW132140   0.422   7.550   3.490 -0.2768  1.9903  0.8928
10233SOL    HW232141   0.515   7.567   3.608  0.2001 -2.0060  1.2426
10234SOL     OW32142   6.946   0.388   3.579  0.1224  0.5260 -0.9127
10234SOL    HW132143   6.879   0.403   3.513 -0.4257 -0.8716 -0.7011
10234SOL    HW232144   7.020   0.352   3.530 -0.3597 -0.7100 -0.7661
10235SOL     OW32145   6.837   6.870  11.596 -0.2986 -0.5705  0.2524
10235SOL    HW132146   6.776   6.835  11.531 -0.9809  0.7191  0.1800
10235SOL    HW232147   6.825   6.965  11.593  0.6532 -0.3892  1.2910
10236SOL     OW32148   1.506   4.230   4.248 -0.1368  0.6379  0.4156
10236SOL    HW132149   1.426   4.178   4.241 -0.2756  1.0902 -2.1007
10236SOL    HW232150   1.475   4.318   4.269 -0.3632  0.8855 -0.8835
10237SOL     OW32151   7.498   1.162   4.397  0.0347 -0.3799  0.1887
10237SOL    HW132152   7.413   1.143   4.436  0.6341  1.1597  2.4903
10237SOL    HW232153   7.545   1.079   4.399 -0.4671 -0.6574  1.5691
10238SOL     OW32154   6.444   4.464   9.417  0.0039 -0.2884 -0.2356
10238SOL    HW132155   6.350   4.455   9.401  0.0539  0.2692 -0.9120
10238SOL    HW232156   6.481   4.484   9.331  0.9240 -1.7893 -0.2194
10239SOL     OW32157   3.898   1.091  11.149 -0.0036  0.1556 -0.4198
10239SOL    HW132158   3.917   1.142  11.070  0.5160 -0.5185 -0.7480
10239SOL    HW232159   3.885   1.002  11.116 -0.4065 -0.0098  0.1937
10240SOL     OW32160   5.284   1.546   7.169  0.2497  0.1735 -0.3405
10240SOL    HW132161   5.373   1.564   7.137  0.8005 -0.4551  0.7795
10240SOL    HW232162   5.271   1.610   7.239  0.6589 -1.0481  0.9132
10241SOL     OW32163   1.377   6.954   9.423 -0.0109  0.4943 -0.2113
10241SOL    HW132164   1.429   6.883   9.459  0.3261  1.1928  0.7146
10241SOL    HW232165   1.328   6.914   9.351 -0.6375 -0.9290  0.9564
10242SOL     OW32166   1.114   4.508  12.107 -0.5170  0.0057 -0.2454
10242SOL    HW132167   1.152   4.592  12.080  2.7827 -1.7355 -1.5599
10242SOL    HW232168   1.052   4.487  12.037 -1.0149  1.0837 -0.1570
10243SOL     OW32169   5.341   2.809   2.559 -0.3347 -0.5822  0.2913
10243SOL    HW132170   5.434   2.811   2.579 -0.3778  0.2225  0.4595
10243SOL    HW232171   5.336   2.832   2.466 -0.3268 -1.2954  0.1102
10244SOL     OW32172   1.892   4.707   6.422 -0.9249  0.4426 -0.7261
10244SOL    HW132173   1.839   4.633   6.392  0.6907 -1.1825  0.2100
10244SOL    HW232174   1.970   4.704   6.367 -0.1923  0.5188  0.2697
10245SOL     OW32175   7.510   3.810   7.408  0.0283  0.6962  0.5846
10245SOL    HW132176   7.515   3.720   7.441  0.5965  0.3629 -0.3907
10245SOL    HW232177   7.423   3.816   7.368  0.2045  0.3955  0.1445
10246SOL     OW32178   6.021   3.452  11.394 -0.4125 -0.2378 -0.3499
10246SOL    HW132179   5.973   3.372  11.371  0.7058 -0.8155 -0.8052
10246SOL    HW232180   6.091   3.456  11.329 -0.4958  1.1668 -0.3630
10247SOL     OW32181   3.272   2.816   7.721  0.0261 -0.1478 -0.3744
10247SOL    HW132182   3.338   2.762   7.765  1.7275  0.0382 -2.5193
10247SOL    HW232183   3.192   2.764   7.724  0.7886 -1.3182  0.4790
10248SOL     OW32184   4.207   1.512   6.979 -0.2574 -0.0118 -0.1435
10248SOL    HW132185   4.193   1.467   7.063  1.1553  0.8331  0.5841
10248SOL    HW232186   4.245   1.446   6.922 -1.5731 -0.6991 -0.2781
10249SOL     OW32187   5.330   6.520   4.978 -0.6952  0.6963 -0.6616
10249SOL    HW132188   5.249   6.542   5.024 -0.6088 -0.9124  0.3341
10249SOL    HW232189   5.307   6.525   4.885 -2.0179  0.0169 -0.3911
10250SOL     OW32190   6.162   0.151   0.956 -0.0317  0.3146 -0.1890
10250SOL    HW132191   6.092   0.202   0.915 -0.9609 -0.8156 -0.0585
10250SOL    HW232192   6.169   0.185   1.045 -0.2920  0.5549 -0.2613
10251SOL     OW32193   2.394   3.630   6.255  0.2234  0.1568  0.4632
10251SOL    HW132194   2.390   3.628   6.351  0.5449  0.7526  0.4973
10251SOL    HW232195   2.468   3.574   6.232 -0.5042 -0.8475  0.4970
10252SOL     OW32196   7.019   6.140   1.688  0.1569 -0.1155 -0.7597
10252SOL    HW132197   6.953   6.149   1.619  0.2074  0.8477 -0.7060
10252SOL    HW232198   7.102   6.136   1.641  0.1061 -0.7281 -0.8023
10253SOL     OW32199   2.731   1.012  10.756  0.1315 -0.0580  0.0521
10253SOL    HW132200   2.768   0.929  10.725 -0.7024 -0.9835  1.4646
10253SOL    HW232201   2.638   0.996  10.765  0.1637  0.5148  1.8656
10254SOL     OW32202   0.567   4.614   8.514  0.0220 -0.4313  0.0804
10254SOL    HW132203   0.631   4.683   8.496 -0.0446 -0.3059  0.3214
10254SOL    HW232204   0.503   4.655   8.572 -0.2867 -0.5530 -0.1716
10255SOL     OW32205   0.398   0.223   2.047  0.6995  1.1060  0.4676
10255SOL    HW132206   0.405   0.280   2.124 -2.5398  1.9848  0.2386
10255SOL    HW232207   0.407   0.135   2.082 -0.2305  1.5113  1.7992
10256SOL     OW32208   7.665   1.348   3.421  0.2835  0.2784 -0.3528
10256SOL    HW132209   7.615   1.369   3.342 -0.0032  0.5788 -0.0988
10256SOL    HW232210   7.637   1.414   3.485  0.6134  0.1238 -0.0428
10257SOL     OW32211   0.207   3.960   8.778 -0.0583 -0.0929 -0.4177
10257SOL    HW132212   0.243   3.886   8.827  1.2684 -0.7673 -2.3108
10257SOL    HW232213   0.160   3.920   8.705 -0.1782  0.9227 -0.9056
10258SOL     OW32214   5.371   2.991   5.993 -0.8309  0.1309 -0.1341
10258SOL    HW132215   5.341   2.981   5.903  1.8874 -0.7714 -1.0541
10258SOL    HW232216   5.399   2.903   6.018  2.1754  1.0306  0.0634
10259SOL     OW32217   3.617   5.739  10.405  0.2155 -0.1529 -0.4441
10259SOL    HW132218   3.560   5.797  10.354 -0.2832 -0.8999 -0.7564
10259SOL    HW232219   3.703   5.748  10.364  0.0303 -0.0076 -0.8015
10260SOL     OW32220   2.514   6.784   9.144 -0.1539  0.1303 -0.1821
10260SOL    HW132221   2.569   6.794   9.222 -1.7441 -0.6890  1.1017
10260SOL    HW232222   2.472   6.699   9.155 -1.2326  0.4706 -1.4027
10261SOL     OW32223   1.600   4.003   3.090 -0.0738 -0.3494 -0.1402
10261SOL    HW132224   1.694   3.990   3.085 -0.1671 -1.6310  0.8899
10261SOL    HW232225   1.588   4.074   3.152  0.2003 -0.7926  0.4326
10262SOL     OW32226   7.123   5.867   0.379 -0.1929 -0.8289 -0.6963
10262SOL    HW132227   7.176   5.922   0.437 -0.8923  1.0826 -1.7513
10262SOL    HW232228   7.061   5.823   0.437  1.9013 -2.4244  0.4498
10263SOL     OW32229   4.039   7.863   7.924 -0.5679  0.1537 -0.0272
10263SOL    HW132230   3.975   7.824   7.983 -0.6358  0.6066  0.2029
10263SOL    HW232231   4.051   7.798   7.855 -0.0321 -0.6484  0.7954
10264SOL     OW32232   3.119   2.520   8.705 -0.2369  0.9056 -0.3375
10264SOL    HW132233   3.086   2.495   8.618  0.2566  2.3984 -0.9864
10264SOL    HW232234   3.171   2.599   8.689  0.2324  0.9571  1.2647
10265SOL     OW32235   7.361   7.857   9.899  0.0229  0.0051  0.0635
10265SOL    HW132236   7.398   7.850   9.811 -0.6016  0.4351 -0.2440
10265SOL    HW232237   7.354   7.767   9.930 -1.5489 -0.3168 -1.1045
10266SOL     OW32238   5.424   4.037   7.689 -0.3935 -0.0386  0.1459
10266SOL    HW132239   5.337   4.049   7.726 -0.3063 -1.6537  0.9953
10266SOL    HW232240   5.482   4.036   7.766  0.1402 -0.6543 -0.2499
10267SOL     OW32241   5.613   7.126   0.742 -0.4981  0.3970 -0.1898
10267SOL    HW132242   5.643   7.189   0.677  1.5954  0.4330  0.7022
10267SOL    HW232243   5.576   7.054   0.691 -2.7474  2.1928 -1.2331
10268SOL     OW32244   6.517   5.178   5.662  0.3690 -0.5175  0.3743
10268SOL    HW132245   6.437   5.226   5.686  0.1442 -0.6539 -0.0967
10268SOL    HW232246   6.564   5.167   5.745 -0.3838 -0.9567  0.7518
10269SOL     OW32247   6.916   0.961   0.723  0.9728  0.3117  0.1317
10269SOL    HW132248   6.938   1.054   0.728  0.7345  0.3540  0.3633
10269SOL    HW232249   6.864   0.943   0.801 -0.0371  0.2702 -0.5280
10270SOL     OW32250   0.505   6.447  10.762  0.0990 -0.5082 -0.1002
10270SOL    HW132251   0.473   6.407  10.844 -0.8084 -0.4615 -0.4237
10270SOL    HW232252   0.557   6.522  10.791  0.4522 -0.9560  0.4609
10271SOL     OW32253   1.858   4.962   8.605  0.1520 -0.5268 -0.2659
10271SOL    HW132254   1.770   4.927   8.594 -0.6405  1.4581 -0.8189
10271SOL    HW232255   1.877   4.951   8.698 -0.6913 -0.9503 -0.1314
10272SOL     OW32256   7.482   5.083   7.389  0.7645 -0.6922  0.6372
10272SOL    HW132257   7.431   5.126   7.457  0.8985  0.3237  0.1065
10272SOL    HW232258   7.573   5.099   7.413  0.8081  0.2901 -0.1633
10273SOL     OW32259   4.268   2.806   6.391  0.0398 -0.1909  0.0009
10273SOL    HW132260   4.211   2.806   6.314 -0.8650  1.4462  0.6081
10273SOL    HW232261   4.225   2.746   6.452 -0.8828  0.7508  0.3139
10274SOL     OW32262   4.619   4.529   4.945  0.6545  0.1599 -0.1952
10274SOL    HW132263   4.694   4.549   4.888  1.5788 -0.2456  0.8302
10274SOL    HW232264   4.658   4.485   5.020 -0.8265 -1.6847 -0.4404
10275SOL     OW32265   3.269   7.702   3.487  0.4771  0.2359  0.5136
10275SOL    HW132266   3.296   7.740   3.570 -0.7613 -0.2746  1.1699
10275SOL    HW232267   3.323   7.623   3.478  0.3032  0.0498  1.0615
10276SOL     OW32268   6.123   0.338   1.602 -0.5702 -0.8258  0.3959
10276SOL    HW132269   6.104   0.410   1.542 -0.2709  0.6593  2.0111
10276SOL    HW232270   6.121   0.259   1.546 -0.7417  0.4180 -1.4467
10277SOL     OW32271   3.137   4.570   6.288 -0.2593  0.2676  0.2744
10277SOL    HW132272   3.136   4.584   6.193  0.7454 -1.5700 -0.0405
10277SOL    HW232273   3.204   4.630   6.320 -0.3011  0.5868 -0.2177
10278SOL     OW32274   5.577   2.031   4.649 -0.1687 -0.2286  0.1820
10278SOL    HW132275   5.644   1.982   4.696 -0.0557  0.4968  0.7851
10278SOL    HW232276   5.506   2.041   4.713 -0.3069  0.1461 -0.0307
10279SOL     OW32277   1.499   1.179   2.343 -0.1031  0.4329 -0.3880
10279SOL    HW132278   1.572   1.241   2.345  0.6866 -0.4899  0.2442
10279SOL    HW232279   1.517   1.119   2.415 -0.9468 -0.4244 -0.8721
10280SOL     OW32280   4.431   3.484   1.265  0.2114  0.4427 -0.3935
10280SOL    HW132281   4.377   3.431   1.323  1.3207 -0.3543 -0.0465
10280SOL    HW232282   4.492   3.422   1.225  0.7513  1.2756 -0.9047
10281SOL     OW32283   6.217   7.246   1.599 -0.1126 -0.6408 -0.1868
10281SOL    HW132284   6.139   7.268   1.650 -0.4308 -1.3117 -0.3717
10281SOL    HW232285   6.217   7.150   1.596  0.6076 -0.6379 -0.3614
10282SOL     OW32286   2.894   7.472   1.177 -0.0151 -0.5472  0.2273
10282SOL    HW132287   2.804   7.440   1.181  0.3380 -1.7818 -1.1663
10282SOL    HW232288   2.888   7.555   1.128 -0.5493  0.1050  1.3580
10283SOL     OW32289   3.445   3.590   1.668 -0.0173 -0.1639  0.3571
10283SOL    HW132290   3.429   3.496   1.678  0.7527 -0.1281  2.3161
10283SOL    HW232291   3.531   3.595   1.626 -1.5326 -0.2753 -3.1549
10284SOL     OW32292   4.284   6.575   4.138 -0.3182 -0.0862 -0.3970
10284SOL    HW132293   4.305   6.482   4.131  0.2339 -0.0034  0.1134
10284SOL    HW232294   4.334   6.606   4.213 -0.5654  0.6077 -0.5072
10285SOL     OW32295   2.875   7.718   1.060  0.0722 -0.3963  0.1762
10285SOL    HW132296   2.889   7.767   1.142  1.9181  1.6155 -1.2239
10285SOL    HW232297   2.802   7.764   1.018  1.8759  1.3788 -1.1896
10286SOL     OW32298   0.163   5.650  10.059  0.1176  0.1752  0.8364
10286SOL    HW132299   0.147   5.724  10.117 -0.3801  0.6357  0.1304
10286SOL    HW232300   0.146   5.572  10.112  0.7074  0.5578  1.6013
10287SOL     OW32301   0.048   5.931   3.188 -0.2629 -0.2887 -0.0982
10287SOL    HW132302   0.120   5.892   3.138 -0.4465 -0.3608 -0.3063
10287SOL    HW232303  -0.025   5.933   3.127 -0.3255  0.1515 -0.0077
10288SOL     OW32304   0.531   6.159  12.063  0.2119  0.0327  0.3915
10288SOL    HW132305   0.606   6.103  12.082 -0.8187 -1.4211  0.3349
10288SOL    HW232306   0.456   6.112  12.100 -0.8203  0.8694 -0.5618
10289SOL     OW32307   2.364   2.036   9.662  0.4778 -0.4308  0.7735
10289SOL    HW132308   2.384   2.099   9.593  2.0179  0.4413  1.9439
10289SOL    HW232309   2.389   1.951   9.625 -1.6978 -0.4332 -0.8453
10290SOL     OW32310   0.119   0.352   3.067  0.0019 -0.7705 -0.3890
10290SOL    HW132311   0.071   0.386   2.992  1.0379  0.2253 -0.6297
10290SOL    HW232312   0.189   0.416   3.082 -1.1001 -0.0606  2.4300
10291SOL     OW32313   1.463   6.063   9.986  0.9497  0.6105  0.0038
10291SOL    HW132314   1.391   6.121  10.010  1.4875  0.7260  1.3866
10291SOL    HW232315   1.433   5.976  10.011  1.0825  0.5892  0.0895
10292SOL     OW32316   3.433   2.613   1.088  0.7240 -0.0355  0.1970
10292SOL    HW132317   3.366   2.579   1.028  1.5661 -1.2285 -0.1151
10292SOL    HW232318   3.385   2.670   1.148 -0.7209 -1.4901  0.4963
10293SOL     OW32319   7.809   5.164  11.890 -0.2333 -0.7826  0.1972
10293SOL    HW132320   7.836   5.252  11.863 -2.3529 -0.2729 -0.4898
10293SOL    HW232321   7.872   5.106  11.848  0.8659  0.3632  0.1861
10294SOL     OW32322   1.665   4.746   2.587  0.3530  0.2978  0.1911
10294SOL    HW132323   1.670   4.664   2.537  0.4396  0.3323  0.1438
10294SOL    HW232324   1.659   4.814   2.521 -1.7918  0.2116  0.2101
10295SOL     OW32325   1.309   6.553   7.669  0.0847 -0.3243  0.2298
10295SOL    HW132326   1.233   6.524   7.718 -0.0355 -1.3187 -0.5244
10295SOL    HW232327   1.317   6.646   7.691 -1.6785 -0.0556 -0.1132
10296SOL     OW32328   0.761   0.698   2.148 -0.2989  0.4546  0.0573
10296SOL    HW132329   0.837   0.645   2.173 -1.8586 -1.6428  0.6134
10296SOL    HW232330   0.742   0.672   2.058 -0.6077  0.6734  0.0568
10297SOL     OW32331   1.198   4.241   7.442  0.4794 -0.2541 -0.9767
10297SOL    HW132332   1.118   4.190   7.431  1.1175 -1.5403  0.1663
10297SOL    HW232333   1.269   4.178   7.432  1.4063  0.9599 -2.4589
10298SOL     OW32334   7.255   0.923   9.062 -0.5055  0.1982 -0.2996
10298SOL    HW132335   7.327   0.937   9.123 -0.8411 -1.0934  0.4350
10298SOL    HW232336   7.210   1.008   9.057 -0.4029  0.3592  1.1758
10299SOL     OW32337   0.518   5.291   8.012  0.1551  0.0361  0.1737
10299SOL    HW132338   0.546   5.336   7.932 -0.1297 -0.6654 -0.3260
10299SOL    HW232339   0.423   5.283   8.003  0.1710 -0.4175  0.3848
10300SOL     OW32340   0.557   4.756   7.597  0.7827  0.0797  0.3205
10300SOL    HW132341   0.581   4.718   7.682  0.1565  0.8718  0.8610
10300SOL    HW232342   0.640   4.789   7.562  0.7198  1.9552  1.7589
10301SOL     OW32343   5.736   3.613   3.777 -0.1462  0.3394  0.3251
10301SOL    HW132344   5.724   3.529   3.822  1.5256 -0.0052  0.2088
10301SOL    HW232345   5.798   3.593   3.707 -0.2547  1.5414 -0.1265
10302SOL     OW32346   6.375   5.852   6.680 -0.1956  0.0765  0.6725
10302SOL    HW132347   6.430   5.773   6.681 -1.3484 -0.7980 -0.8704
10302SOL    HW232348   6.392   5.892   6.594  2.5231  3.1753  2.4138
10303SOL     OW32349   5.186   2.888  10.653  0.1612 -0.2409 -0.3502
10303SOL    HW132350   5.225   2.969  10.685 -1.6641 -0.2702  2.2323
10303SOL    HW232351   5.115   2.916  10.597  0.4606 -0.0966 -0.6613
10304SOL     OW32352   0.429   3.907   3.043  0.0536  0.5800  0.0097
10304SOL    HW132353   0.385   3.844   3.101 -1.7041  0.2290 -1.5978
10304SOL    HW232354   0.380   3.902   2.961  1.2465  2.4740 -0.8859
10305SOL     OW32355   4.696   7.174   5.567  0.1666  0.3435 -0.0668
10305SOL    HW132356   4.703   7.187   5.661  0.2370  0.7855 -0.1283
10305SOL    HW232357   4.609   7.207   5.544  0.3399  0.6971 -0.2267
10306SOL     OW32358   2.197   6.805   6.547  0.2216 -0.0789 -0.3812
10306SOL    HW132359   2.161   6.840   6.628 -0.1258 -1.4999  0.1041
10306SOL    HW232360   2.143   6.843   6.478 -0.8109 -0.4784  0.1985
10307SOL     OW32361   4.143   5.796   3.572  0.0475 -0.0468  0.5629
10307SOL    HW132362   4.092   5.730   3.620 -1.5590 -0.3224 -1.3935
10307SOL    HW232363   4.191   5.745   3.506  0.9841  0.4834  0.8188
10308SOL     OW32364   2.094   0.033   0.887  0.1259 -0.0181 -0.2725
10308SOL    HW132365   2.133  -0.004   0.966  1.8106 -1.1864 -1.5825
10308SOL    HW232366   2.004   0.001   0.887  0.0833  0.0302  1.1655
10309SOL     OW32367   1.161   1.087  10.747 -0.2198  0.4410  0.0869
10309SOL    HW132368   1.081   1.134  10.725 -0.9918 -1.3026 -0.9886
10309SOL    HW232369   1.133   1.018  10.807  0.7854  0.8560  1.0911
10310SOL     OW32370   6.856   3.221   3.524 -0.3782  0.6030  0.3640
10310SOL    HW132371   6.823   3.299   3.478  1.0417  0.4523 -0.9905
10310SOL    HW232372   6.934   3.252   3.570  1.5624 -0.3981 -2.0287
10311SOL     OW32373   2.275   5.776   9.566  0.2782 -0.5104 -0.4115
10311SOL    HW132374   2.353   5.830   9.552  0.8333 -0.4796  2.2423
10311SOL    HW232375   2.295   5.693   9.522  1.2926 -0.0994 -0.7520
10312SOL     OW32376   5.340   5.351   7.812  0.6359  0.0411 -0.4127
10312SOL    HW132377   5.381   5.403   7.881  1.3664 -0.3109 -0.5719
10312SOL    HW232378   5.398   5.362   7.736  0.3262 -0.2927 -0.6997
10313SOL     OW32379   1.188   0.852   0.732  0.8791  0.3648 -0.1092
10313SOL    HW132380   1.170   0.933   0.685  1.2361  1.3390  1.3613
10313SOL    HW232381   1.112   0.796   0.712  0.6409  1.0286 -1.1698
10314SOL     OW32382   7.876   2.831  12.280  0.3653 -0.3292 -0.7146
10314SOL    HW132383   7.922   2.900  12.328 -0.3905 -0.9680  0.9940
10314SOL    HW232384   7.797   2.874  12.246  0.7665  0.0579 -1.1706
10315SOL     OW32385   2.199   6.814   5.822  0.6458 -0.4952  0.0359
10315SOL    HW132386   2.118   6.781   5.784 -0.4624  0.3039  1.6081
10315SOL    HW232387   2.261   6.741   5.814 -0.0051 -0.9232 -1.7120
10316SOL     OW32388   0.924   0.300   4.478  0.4287  0.0258 -0.1848
10316SOL    HW132389   0.904   0.393   4.481 -1.5913 -0.3373 -0.8272
10316SOL    HW232390   1.003   0.290   4.532  0.1039  1.9460  0.7136
10317SOL     OW32391   4.790   6.936   8.932 -0.4569  0.2670  0.0185
10317SOL    HW132392   4.785   7.002   9.001  0.8599  1.6514 -1.1605
10317SOL    HW232393   4.794   6.853   8.980 -1.4967  1.0349  1.5434
10318SOL     OW32394   0.649   5.676   4.866 -0.3063 -0.2409 -0.1707
10318SOL    HW132395   0.743   5.694   4.858 -0.4591 -0.0210 -2.0491
10318SOL    HW232396   0.607   5.763   4.861 -0.5752 -0.0400  3.2470
10319SOL     OW32397   3.909   2.821  10.380  0.2906  0.2861  0.4229
10319SOL    HW132398   3.937   2.910  10.400 -1.6178  1.2347 -0.7763
10319SOL    HW232399   3.972   2.764  10.424  0.5873  2.2222  2.6246
10320SOL     OW32400   4.390   4.724   3.220 -0.2427 -0.2527 -0.2492
10320SOL    HW132401   4.449   4.718   3.295 -0.2628  0.0693 -0.2054
10320SOL    HW232402   4.320   4.662   3.240  0.0216 -0.5545 -0.2492
10321SOL     OW32403   1.198   3.147  11.487 -0.4785  0.6913 -0.4336
10321SOL    HW132404   1.224   3.171  11.575  0.9318  0.5496 -0.7977
10321SOL    HW232405   1.252   3.201  11.429 -2.6338  2.1356 -1.2541
10322SOL     OW32406   6.396   1.030   8.162  0.2430 -0.6040 -0.1544
10322SOL    HW132407   6.450   0.978   8.102 -0.0535 -1.5783  0.4008
10322SOL    HW232408   6.418   0.996   8.249 -0.7108 -0.5060  0.1344
10323SOL     OW32409   5.563   7.894   5.284 -0.4095 -0.3113 -0.0263
10323SOL    HW132410   5.529   7.966   5.231  0.1050 -1.4395 -1.9863
10323SOL    HW232411   5.650   7.922   5.310  1.0436 -1.2922 -3.3067
10324SOL     OW32412   2.776   5.648   0.230 -0.4588 -0.0406 -0.4529
10324SOL    HW132413   2.773   5.600   0.147 -0.5538  0.7318 -0.9036
10324SOL    HW232414   2.688   5.684   0.239 -0.4643 -0.1646  0.0163
10325SOL     OW32415   1.550   3.167   1.357  0.4434  0.4990  0.0797
10325SOL    HW132416   1.579   3.089   1.404 -0.2975 -0.5231 -1.0655
10325SOL    HW232417   1.550   3.237   1.422  2.7805 -0.0404  0.7484
10326SOL     OW32418   1.393   7.950   7.747  0.1845 -0.0172  0.2175
10326SOL    HW132419   1.428   7.884   7.688 -1.2770 -0.4685 -0.1879
10326SOL    HW232420   1.353   8.015   7.690  0.0585  0.3018  0.6606
10327SOL     OW32421   6.309   2.347   7.335  0.4804 -0.0735  0.4096
10327SOL    HW132422   6.304   2.394   7.251  1.1091  1.2627  1.0888
10327SOL    HW232423   6.235   2.382   7.386 -0.3939 -1.4774  0.1519
10328SOL     OW32424   4.638   3.306   8.307 -0.3079 -0.0750 -0.2116
10328SOL    HW132425   4.707   3.259   8.354  0.1544 -0.9093 -1.6566
10328SOL    HW232426   4.669   3.312   8.217 -2.6673 -1.7475 -1.2630
10329SOL     OW32427   4.608   7.814   6.938  0.7380  0.0724 -0.1206
10329SOL    HW132428   4.588   7.724   6.913 -0.7352  0.5300 -0.6635
10329SOL    HW232429   4.579   7.821   7.029  1.8067 -0.2688  0.2660
10330SOL     OW32430   7.551   1.051  11.110 -0.2153 -0.4402 -0.4169
10330SOL    HW132431   7.554   1.104  11.190  0.4487 -0.4973 -0.4027
10330SOL    HW232432   7.642   1.031  11.090 -0.4243 -1.1778 -0.6928
10331SOL     OW32433   7.675   0.957   4.451  0.0565  0.1601 -0.2589
10331SOL    HW132434   7.745   0.933   4.391  0.9339  0.4260  0.6360
10331SOL    HW232435   7.699   0.916   4.534 -0.6799  0.5221  0.1449
10332SOL     OW32436   5.554   6.813   3.704  0.0930 -0.1646  0.2162
10332SOL    HW132437   5.598   6.731   3.683  0.8633  0.4164 -0.5068
10332SOL    HW232438   5.463   6.798   3.677  0.1996 -0.8211  0.2049
10333SOL     OW32439   5.904   2.795   4.682  0.7644 -0.6485  0.3743
10333SOL    HW132440   5.866   2.758   4.602  0.6081 -0.4137  0.3388
10333SOL    HW232441   5.994   2.763   4.683  0.8262 -0.4915  0.0031
10334SOL     OW32442   0.227   6.604   7.258  0.2121  0.0528  0.3208
10334SOL    HW132443   0.193   6.689   7.285 -2.1368 -1.0454  1.0791
10334SOL    HW232444   0.166   6.541   7.295  1.9644 -2.0046 -0.0928
10335SOL     OW32445   0.909   5.953   3.687  0.3682  0.8703 -0.0749
10335SOL    HW132446   0.893   5.862   3.664  1.1771  1.4126 -3.1844
10335SOL    HW232447   1.000   5.955   3.717  0.8312  0.8214 -1.4000
10336SOL     OW32448   2.208   4.234  11.238 -0.0146  0.1391 -0.3116
10336SOL    HW132449   2.174   4.189  11.316 -1.8082  1.9366  0.0358
10336SOL    HW232450   2.255   4.310  11.273  0.8503 -0.0785 -0.9563
10337SOL     OW32451   7.299   6.307   3.218 -0.9181  0.0263 -0.5432
10337SOL    HW132452   7.213   6.346   3.236 -0.1707  0.8168  1.7725
10337SOL    HW232453   7.356   6.381   3.197 -0.6519 -0.4157 -1.4123
10338SOL     OW32454   0.214   0.206   1.833 -0.2665 -0.3451  0.0481
10338SOL    HW132455   0.136   0.237   1.879 -0.9527 -0.2946 -1.1082
10338SOL    HW232456   0.277   0.186   1.902 -1.4482 -0.7639  1.0217
10339SOL     OW32457   7.758   3.063   3.624 -0.3672  0.1502  0.0513
10339SOL    HW132458   7.749   3.155   3.650  2.2259  0.3533  0.4475
10339SOL    HW232459   7.696   3.017   3.680  0.9201  1.2769  2.5618
10340SOL     OW32460   7.012   2.433   7.196 -0.2009 -0.2653  0.4210
10340SOL    HW132461   7.086   2.448   7.255 -1.1163 -1.2047  1.8375
10340SOL    HW232462   6.935   2.457   7.247 -0.9247  0.4962 -0.9662
10341SOL     OW32463   6.100   1.698  11.539  0.1653 -0.0941 -0.1889
10341SOL    HW132464   6.162   1.682  11.611  0.9254  0.3144 -0.7331
10341SOL    HW232465   6.087   1.792  11.538  1.1151  0.0561 -1.3269
10342SOL     OW32466   7.742   0.356   0.907  0.3239  0.3548 -0.3825
10342SOL    HW132467   7.829   0.395   0.897  0.3389  0.2626 -0.6215
10342SOL    HW232468   7.758   0.262   0.910  0.2070  0.3235 -0.7242
10343SOL     OW32469   1.375   5.152   7.517 -0.4943 -0.5909  0.3319
10343SOL    HW132470   1.338   5.190   7.597 -1.0072 -0.2186 -0.0783
10343SOL    HW232471   1.418   5.071   7.546 -0.3669 -0.2736  1.0361
10344SOL     OW32472   3.706   5.650   1.438  0.2530  0.3461  0.3033
10344SOL    HW132473   3.698   5.729   1.385 -2.7500  0.1252  0.2507
10344SOL    HW232474   3.659   5.671   1.519  0.2387 -1.0650  0.6912
10345SOL     OW32475   3.412   4.913  10.653 -0.0222 -0.3596 -0.5081
10345SOL    HW132476   3.474   4.882  10.587  1.7822  1.9208 -0.0140
10345SOL    HW232477   3.354   4.972  10.605  0.3595  0.1457 -0.3594
10346SOL     OW32478   6.268   0.378   2.313 -0.3329 -1.0776  0.2889
10346SOL    HW132479   6.359   0.391   2.285 -0.6519 -0.9390 -0.7009
10346SOL    HW232480   6.216   0.429   2.251 -0.9954  0.3314  1.9266
10347SOL     OW32481   0.356   6.491   5.151  0.1994  0.2397  0.1073
10347SOL    HW132482   0.331   6.412   5.198  1.4130  0.2968  0.8735
10347SOL    HW232483   0.317   6.480   5.064 -1.3253 -0.2637  0.8203
10348SOL     OW32484   3.604   0.580   9.175 -0.7184 -0.0640 -0.2166
10348SOL    HW132485   3.565   0.507   9.224  2.3966 -0.9972  1.1749
10348SOL    HW232486   3.665   0.537   9.114  0.2287  1.3281 -0.2857
10349SOL     OW32487   4.553   4.456   9.079  0.3987 -0.1590  0.1477
10349SOL    HW132488   4.490   4.388   9.057 -0.7251  1.4324 -2.0468
10349SOL    HW232489   4.634   4.409   9.097 -0.1445 -2.0851 -1.9202
10350SOL     OW32490   6.891   2.902   1.718  0.7037 -0.9483 -0.2344
10350SOL    HW132491   6.872   2.847   1.794 -0.5446 -1.3267 -0.7992
10350SOL    HW232492   6.888   2.992   1.753 -3.0374 -0.8731 -0.3291
10351SOL     OW32493   1.726   4.718   5.416  0.3962  0.0436 -0.8229
10351SOL    HW132494   1.758   4.803   5.387  0.5560  0.4877  0.5697
10351SOL    HW232495   1.670   4.687   5.345 -0.6162  1.8470 -0.8750
10352SOL     OW32496   6.945   1.699   2.114 -0.2430  0.1417 -0.7158
10352SOL    HW132497   6.954   1.603   2.120 -0.0693  0.0694 -1.8244
10352SOL    HW232498   6.866   1.719   2.163 -0.1926 -0.5572 -0.3363
10353SOL     OW32499   7.610   7.771   2.574 -0.0133  0.0427  0.3744
10353SOL    HW132500   7.528   7.740   2.536 -0.0465 -1.2112  1.3715
10353SOL    HW232501   7.593   7.861   2.601 -0.9568 -0.0949  0.2594
10354SOL     OW32502   0.424   2.697   6.970  0.1221  0.1682 -0.5254
10354SOL    HW132503   0.342   2.728   7.009 -0.1964 -2.0040  0.7040
10354SOL    HW232504   0.493   2.744   7.017 -0.3665  0.0974  0.2756
10355SOL     OW32505   1.859   4.631   6.067 -0.1856 -0.2658 -0.0833
10355SOL    HW132506   1.798   4.558   6.076  1.3705 -1.7106 -0.6943
10355SOL    HW232507   1.905   4.614   5.984 -0.3614  1.8769 -0.6695
10356SOL     OW32508   7.828   6.938  10.872 -0.1606 -0.1858 -0.2821
10356SOL    HW132509   7.903   6.984  10.833  0.8015 -0.7901  0.7873
10356SOL    HW232510   7.779   7.005  10.918  0.8797 -0.0982  0.7313
10357SOL     OW32511   0.364   1.743   3.181 -0.0383 -0.1127 -0.0819
10357SOL    HW132512   0.390   1.694   3.104  0.1819  0.7998 -0.6047
10357SOL    HW232513   0.310   1.683   3.232  0.2270 -0.8812 -0.7014
10358SOL     OW32514   2.994   1.873   8.005 -0.1152 -0.0462  0.4170
10358SOL    HW132515   2.978   1.944   8.066  1.0706  0.9140 -0.3406
10358SOL    HW232516   3.026   1.801   8.059  0.9861  0.8136  0.9476
10359SOL     OW32517   7.488   4.872  10.113 -0.2422  0.7916  1.0304
10359SOL    HW132518   7.444   4.858  10.197 -0.4017  0.6155  0.9197
10359SOL    HW232519   7.580   4.882  10.135 -0.4973  2.5358  1.4081
10360SOL     OW32520   6.015   4.565   6.950 -0.1397 -0.2779  0.1134
10360SOL    HW132521   5.986   4.608   7.030 -0.6106 -1.9074  0.8569
10360SOL    HW232522   6.078   4.500   6.979  3.1458  1.9918 -1.2999
10361SOL     OW32523   2.027   6.600   5.367  0.1949  0.8200 -0.1851
10361SOL    HW132524   2.072   6.542   5.429  1.5201  1.7128 -0.2750
10361SOL    HW232525   2.098   6.642   5.318 -0.7326  2.5279 -0.1210
10362SOL     OW32526   0.259   3.613   8.424 -0.4000 -0.2988 -0.2358
10362SOL    HW132527   0.340   3.624   8.473 -1.1323  0.3285  0.9015
10362SOL    HW232528   0.191   3.644   8.484 -1.3828  0.0949 -1.5065
10363SOL     OW32529   5.348   5.497   8.731 -0.1670  0.5803 -0.1454
10363SOL    HW132530   5.362   5.424   8.672 -0.5054 -0.3679  0.9038
10363SOL    HW232531   5.436   5.523   8.759 -0.0929 -1.5882  1.9688
10364SOL     OW32532   2.285   0.765   0.680 -0.0881 -0.1323 -1.2079
10364SOL    HW132533   2.275   0.849   0.634  0.5463 -0.1634 -1.4226
10364SOL    HW232534   2.380   0.750   0.680 -0.2031 -0.8770 -1.2089
10365SOL     OW32535   3.601   6.909   1.071  0.6062 -0.4791 -0.2550
10365SOL    HW132536   3.536   6.923   1.140 -0.4410 -1.5376 -0.9820
10365SOL    HW232537   3.615   6.996   1.033 -1.3473 -0.3816 -0.8710
10366SOL     OW32538   7.137   7.356   5.149 -0.0023 -0.3629 -0.1982
10366SOL    HW132539   7.230   7.332   5.143  0.6510  1.7400  0.5003
10366SOL    HW232540   7.105   7.352   5.059  0.2729 -2.6660 -0.2723
10367SOL     OW32541   4.711   5.131   0.349 -0.2808 -0.3839  0.2538
10367SOL    HW132542   4.616   5.129   0.345 -0.2607 -0.3544 -0.5009
10367SOL    HW232543   4.733   5.106   0.439 -0.9817 -0.9875  0.2659
10368SOL     OW32544   6.217   2.938  12.069  0.2116  0.1233  0.6001
10368SOL    HW132545   6.199   2.928  12.163  3.8066  1.4300  1.6107
10368SOL    HW232546   6.240   2.850  12.039 -1.1045 -0.3329  0.8764
10369SOL     OW32547   3.230   6.935   3.601 -0.3358 -0.1746 -0.4490
10369SOL    HW132548   3.269   6.929   3.688 -0.1472  0.5944 -0.4719
10369SOL    HW232549   3.206   7.028   3.592 -2.2724 -0.6156 -0.3788
10370SOL     OW32550   6.529   6.990   6.046 -0.2159 -0.2406 -0.8018
10370SOL    HW132551   6.582   7.019   5.971  3.1461  1.1630  1.8141
10370SOL    HW232552   6.482   7.068   6.074  1.8050  0.4864  0.8682
10371SOL     OW32553   3.267   7.607   0.461  0.8632 -0.3309  0.3076
10371SOL    HW132554   3.257   7.690   0.415 -0.2372  0.5800  2.1006
10371SOL    HW232555   3.273   7.631   0.554 -0.3006 -2.2850  0.9501
10372SOL     OW32556   7.749   6.824   5.298 -0.3590  0.1667 -0.0598
10372SOL    HW132557   7.760   6.809   5.392  0.5906 -1.0814 -0.3341
10372SOL    HW232558   7.654   6.823   5.285 -0.4781 -1.1435  0.6884
10373SOL     OW32559   5.843   4.823   6.662  0.1833  0.1880 -0.1524
10373SOL    HW132560   5.855   4.825   6.757  0.4354  0.8936 -0.1962
10373SOL    HW232561   5.767   4.766   6.649 -0.0629  0.3568  0.4935
10374SOL     OW32562   4.135   4.891   1.590  0.6353 -0.6508 -0.2766
10374SOL    HW132563   4.092   4.947   1.525  2.2545 -1.2966 -2.0047
10374SOL    HW232564   4.214   4.860   1.546 -0.0325 -4.0914  0.6381
10375SOL     OW32565   4.261   7.784   2.585 -0.3062  0.1076  0.4918
10375SOL    HW132566   4.249   7.705   2.638 -1.0844  0.5446  0.9961
10375SOL    HW232567   4.231   7.760   2.497 -2.7147  0.4227  1.1349
10376SOL     OW32568   2.848   2.065   2.446  0.5567  0.2025 -0.1141
10376SOL    HW132569   2.837   1.975   2.476  0.2103  0.4952  0.6625
10376SOL    HW232570   2.903   2.058   2.368  0.6703 -0.6602  0.0356
10377SOL     OW32571   0.546   6.634   7.326  0.1683  0.0472 -0.1911
10377SOL    HW132572   0.453   6.613   7.336  0.7136 -1.4088  3.6566
10377SOL    HW232573   0.589   6.550   7.314  1.0423  0.7517 -2.4870
10378SOL     OW32574   1.500   5.247   0.628 -0.6417  0.4469  0.1779
10378SOL    HW132575   1.468   5.242   0.718 -0.8437  1.6028  0.1840
10378SOL    HW232576   1.595   5.236   0.636 -0.7107  0.0368  0.4744
10379SOL     OW32577   5.126   6.559   4.453 -0.4127  0.4964  0.0067
10379SOL    HW132578   5.146   6.536   4.362 -2.3010 -0.1506 -0.2935
10379SOL    HW232579   5.141   6.654   4.457 -0.9423  0.6543 -1.1826
10380SOL     OW32580   6.934   3.379   1.366  0.0290 -0.1761 -0.3638
10380SOL    HW132581   6.884   3.413   1.441 -0.5948  0.4415 -1.0463
10380SOL    HW232582   7.012   3.340   1.406 -0.1665  0.3622  0.5898
10381SOL     OW32583   4.521   5.475   4.813 -0.0511 -0.0934 -0.0907
10381SOL    HW132584   4.563   5.448   4.731 -0.6334  0.1874 -0.4913
10381SOL    HW232585   4.433   5.437   4.808  0.2851 -1.0406  0.9335
10382SOL     OW32586   6.564   6.353   7.828  0.1381 -0.0477  0.1474
10382SOL    HW132587   6.651   6.369   7.792  0.0103  0.0165 -0.1302
10382SOL    HW232588   6.550   6.259   7.814 -0.4031  0.1998 -1.0586
10383SOL     OW32589   4.493   4.344   7.449 -0.0514 -0.6899 -0.2742
10383SOL    HW132590   4.567   4.398   7.479 -0.6251 -1.0566  2.0284
10383SOL    HW232591   4.417   4.382   7.493 -0.5854 -2.8376  0.7701
10384SOL     OW32592   2.260   4.429   7.162 -0.1870  0.0457  0.7612
10384SOL    HW132593   2.216   4.369   7.102  1.8769 -0.2720 -0.5446
10384SOL    HW232594   2.329   4.376   7.202 -0.2840  0.7828  1.9646
10385SOL     OW32595   5.003   2.969  12.423  0.2535  0.5402  0.6030
10385SOL    HW132596   5.098   2.967  12.419  0.3111  1.9326  1.0443
10385SOL    HW232597   4.978   2.876  12.427  1.6058  0.1735  1.1450
10386SOL     OW32598   7.596   7.816   8.850  0.1795  0.3275  0.2059
10386SOL    HW132599   7.539   7.762   8.796 -0.1278 -0.0940  0.9374
10386SOL    HW232600   7.546   7.895   8.867  0.8079  1.0754 -1.2537
10387SOL     OW32601   2.738   4.381   5.372 -0.2240 -0.0244 -0.4603
10387SOL    HW132602   2.699   4.354   5.289  0.2104 -1.5111 -0.2015
10387SOL    HW232603   2.674   4.355   5.438  0.4452 -0.9748 -0.1635
10388SOL     OW32604   1.961   0.134   3.421  0.2895 -0.2735  0.0799
10388SOL    HW132605   1.970   0.139   3.326  0.8530  0.0338  0.1451
10388SOL    HW232606   1.870   0.160   3.438  0.0247 -0.8549 -0.4095
10389SOL     OW32607   7.742   3.169   9.331  0.3439  0.0807  0.2313
10389SOL    HW132608   7.767   3.078   9.317 -1.5026 -0.6895  1.4834
10389SOL    HW232609   7.701   3.196   9.249  0.2464 -0.4505  0.1028
10390SOL     OW32610   7.520   0.137   1.478 -0.4383 -0.0477 -0.0004
10390SOL    HW132611   7.599   0.175   1.440 -0.5846 -1.9280 -2.4496
10390SOL    HW232612   7.453   0.205   1.467  0.3900  0.8342  0.3294
10391SOL     OW32613   6.291   6.654   8.987 -0.1906 -0.0122 -0.0667
10391SOL    HW132614   6.365   6.710   8.964  0.2320 -0.3880  0.3765
10391SOL    HW232615   6.328   6.586   9.042 -1.0247  0.2996  0.9008
10392SOL     OW32616   6.498   0.539   6.132 -0.4589  0.4754  0.4199
10392SOL    HW132617   6.503   0.621   6.083 -1.5402  0.7618  0.7630
10392SOL    HW232618   6.503   0.566   6.224  2.0304 -0.0894  0.5218
10393SOL     OW32619   5.991   1.013   0.781 -0.3131 -0.4088 -0.7857
10393SOL    HW132620   6.053   1.047   0.845 -1.9587 -1.1772  1.3489
10393SOL    HW232621   6.004   0.918   0.784 -0.5963 -0.4686 -1.4046
10394SOL     OW32622   2.212   4.144   9.724 -0.1697 -0.3268  0.0827
10394SOL    HW132623   2.173   4.218   9.677 -0.3470 -1.0845 -1.0019
10394SOL    HW232624   2.248   4.089   9.655  1.1070 -0.6119  0.9603
10395SOL     OW32625   7.781   7.701   4.985 -0.7132  0.0503 -0.2211
10395SOL    HW132626   7.820   7.664   5.064  0.4390 -1.4445 -1.4173
10395SOL    HW232627   7.831   7.662   4.913 -1.3076  1.8382 -1.6902
10396SOL     OW32628   6.969   7.299  12.067  0.0587 -0.0656 -0.2867
10396SOL    HW132629   6.994   7.277  12.156 -0.2719  0.3384 -0.0913
10396SOL    HW232630   6.981   7.394  12.061  0.7772 -0.1783 -0.8970
10397SOL     OW32631   4.537   2.007   4.763 -0.3923 -0.7218 -0.2283
10397SOL    HW132632   4.574   2.096   4.758 -1.6563 -0.1949 -0.6231
10397SOL    HW232633   4.587   1.965   4.833  0.0221  0.4057  0.1839
10398SOL     OW32634   1.395   6.018  12.037 -0.0918  0.4804  0.1636
10398SOL    HW132635   1.460   5.994  12.104 -0.0478  1.0916  0.3512
10398SOL    HW232636   1.348   6.092  12.075 -1.3277 -0.3357  0.2862
10399SOL     OW32637   5.395   2.420   0.252  0.2474  0.3601  0.4755
10399SOL    HW132638   5.397   2.358   0.326  0.6290 -0.0420  0.1313
10399SOL    HW232639   5.320   2.392   0.200  1.9303 -1.5316 -1.1195
10400SOL     OW32640   3.459   0.692   6.197 -0.1787 -0.3752 -0.2264
10400SOL    HW132641   3.514   0.706   6.275 -0.0259  0.1079 -0.4173
10400SOL    HW232642   3.466   0.598   6.179  0.5835 -0.3173 -0.2448
10401SOL     OW32643   7.679   5.784  11.696 -0.6055  0.1122 -0.3760
10401SOL    HW132644   7.762   5.832  11.694  0.0853 -1.0401 -0.4893
10401SOL    HW232645   7.613   5.849  11.675  0.3871  0.8569 -1.2990
10402SOL     OW32646   0.414   2.219   8.523  0.0037 -0.7229  0.2399
10402SOL    HW132647   0.468   2.230   8.601  0.8066  1.6902 -0.5641
10402SOL    HW232648   0.473   2.179   8.459  0.6266  0.9918 -0.3224
10403SOL     OW32649   6.881   2.497   0.494 -0.3319 -0.1233  0.1363
10403SOL    HW132650   6.857   2.540   0.576  0.6507  0.8833 -0.0868
10403SOL    HW232651   6.860   2.561   0.426 -2.3837 -1.4270 -0.5755
10404SOL     OW32652   4.866   6.637   5.635  0.5377 -0.1208 -0.2856
10404SOL    HW132653   4.902   6.556   5.670  0.1404 -0.3046 -0.2958
10404SOL    HW232654   4.804   6.666   5.702 -0.2804 -0.5115 -0.8612
10405SOL     OW32655   1.121   1.643   8.121 -0.0244 -0.0268 -0.2350
10405SOL    HW132656   1.189   1.710   8.114  0.0027 -0.0213  0.0500
10405SOL    HW232657   1.044   1.690   8.152  0.0550 -0.1636  0.1720
10406SOL     OW32658   5.215   7.641   9.529  0.3980  0.9253 -0.0992
10406SOL    HW132659   5.161   7.599   9.596 -0.7475  2.4878  0.0117
10406SOL    HW232660   5.195   7.594   9.448 -2.7717  2.7036 -0.4916
10407SOL     OW32661   1.271   3.741  12.201  0.2719 -0.4583 -0.6375
10407SOL    HW132662   1.287   3.834  12.186 -0.0269 -0.2743  0.1544
10407SOL    HW232663   1.357   3.706  12.226  0.6918 -0.6919 -2.3126
10408SOL     OW32664   3.545   3.215   1.475 -0.2300  0.1841 -0.3440
10408SOL    HW132665   3.616   3.278   1.491 -0.5162  0.3507  0.3104
10408SOL    HW232666   3.487   3.225   1.550 -0.6732 -0.3332 -0.6107
10409SOL     OW32667   7.710   2.932  12.023 -0.3340  0.6358 -0.0545
10409SOL    HW132668   7.632   2.988  12.025  0.2709  1.4986  0.2410
10409SOL    HW232669   7.685   2.856  11.971 -1.7242  0.3603  0.9750
10410SOL     OW32670   2.400   1.966   5.104  0.5025 -0.2845 -0.7847
10410SOL    HW132671   2.398   2.019   5.024 -0.0775  2.5588  0.9668
10410SOL    HW232672   2.483   1.919   5.100  0.9349  0.5349 -2.5926
10411SOL     OW32673   7.330   4.594   2.576  0.0465  0.2058 -0.3137
10411SOL    HW132674   7.295   4.534   2.511  1.7038 -1.1292 -0.0431
10411SOL    HW232675   7.302   4.557   2.660  0.7222  0.0334 -0.1604
10412SOL     OW32676   0.004   7.001  11.520 -0.5723  0.0632 -0.7101
10412SOL    HW132677  -0.051   7.015  11.597 -4.3542 -0.8329 -3.0013
10412SOL    HW232678   0.051   7.084  11.510  0.7012 -0.0640  2.8852
10413SOL     OW32679   5.482   2.302  10.587  0.2454  0.2383 -0.0075
10413SOL    HW132680   5.434   2.256  10.655 -0.9937  0.7085 -0.5395
10413SOL    HW232681   5.496   2.390  10.622  1.2762 -0.0693  0.3906
10414SOL     OW32682   4.825   4.032   6.014  0.3782  0.7953  0.1075
10414SOL    HW132683   4.808   4.114   6.060  0.8512  1.2830 -0.5918
10414SOL    HW232684   4.919   4.018   6.024  0.0994 -0.4034  1.4419
10415SOL     OW32685   2.204   0.551   5.089  0.0960 -0.1514 -0.0401
10415SOL    HW132686   2.248   0.482   5.038 -0.8265 -1.7146  1.1768
10415SOL    HW232687   2.212   0.629   5.035  1.2302 -1.1931 -1.4724
10416SOL     OW32688   1.126   7.244   7.118  0.5763 -0.2988  0.0060
10416SOL    HW132689   1.201   7.295   7.149  0.7062  0.6225 -1.7504
10416SOL    HW232690   1.151   7.214   7.031 -0.9335 -0.3313 -0.4485
10417SOL     OW32691   1.558   7.589   8.022 -0.3855  0.6547 -0.1953
10417SOL    HW132692   1.532   7.671   8.065  0.8862  0.3570  1.2225
10417SOL    HW232693   1.530   7.521   8.082  0.4376  0.1652 -0.3535
10418SOL     OW32694   1.346   1.509   4.400  0.2522  0.1599 -0.2662
10418SOL    HW132695   1.290   1.561   4.458  1.4135 -0.6425  1.7081
10418SOL    HW232696   1.338   1.551   4.315 -1.6129  1.3750  0.4445
10419SOL     OW32697   6.024   0.785   2.228  0.0666 -0.3776  0.1213
10419SOL    HW132698   6.023   0.758   2.320  0.3728 -1.8843 -0.2931
10419SOL    HW232699   5.939   0.825   2.214  0.4521  0.9671  1.3510
10420SOL     OW32700   0.089   7.767  10.270  0.1845  0.1176  0.5143
10420SOL    HW132701   0.043   7.701  10.217  0.9977 -0.4540  0.5059
10420SOL    HW232702   0.172   7.725  10.293  2.9033  2.7477 -3.3774
10421SOL     OW32703   0.229   5.134   9.114  0.1815 -0.5685  0.4899
10421SOL    HW132704   0.257   5.062   9.170  2.0464 -0.2446  0.0523
10421SOL    HW232705   0.310   5.165   9.073 -1.0318 -0.4028 -1.9187
10422SOL     OW32706   0.242   2.321   5.445  0.0450 -0.3231 -0.2627
10422SOL    HW132707   0.261   2.415   5.442  0.4880 -0.3147  1.5574
10422SOL    HW232708   0.328   2.279   5.447 -0.0599 -0.5767  1.9340
10423SOL     OW32709   1.143   4.265  12.192 -0.3844 -0.7058 -0.0114
10423SOL    HW132710   1.150   4.357  12.167  2.8927  0.0216  2.8164
10423SOL    HW232711   1.170   4.216  12.114  1.9612  1.0194 -0.3796
10424SOL     OW32712   3.628   1.017   9.618  0.0028  0.1923  0.3120
10424SOL    HW132713   3.555   1.077   9.632 -0.6192 -0.4634 -0.0419
10424SOL    HW232714   3.706   1.074   9.617 -0.7386  1.3218 -2.1031
10425SOL     OW32715   2.292   5.221   7.607 -0.2248  0.1163  0.5074
10425SOL    HW132716   2.242   5.258   7.534  0.3309 -0.4668 -0.1782
10425SOL    HW232717   2.332   5.142   7.571 -0.0677 -0.2628  1.4940
10426SOL     OW32718   0.321   1.614   9.869  0.5730 -0.7855  0.4273
10426SOL    HW132719   0.410   1.645   9.852  0.5460 -2.0095 -2.5980
10426SOL    HW232720   0.320   1.525   9.834 -2.1670 -0.3314 -0.9236
10427SOL     OW32721   1.174   0.390   0.964  0.3522 -0.5081 -0.2545
10427SOL    HW132722   1.133   0.413   1.048  2.6757 -0.6415  1.0140
10427SOL    HW232723   1.124   0.438   0.899 -2.5357 -1.6214  0.9853
10428SOL     OW32724   5.899   2.183  10.126 -0.6059  0.0534 -0.2865
10428SOL    HW132725   5.850   2.260  10.098 -1.6947 -0.6801 -0.4350
10428SOL    HW232726   5.835   2.128  10.171 -0.1592 -1.3546 -1.2916
10429SOL     OW32727   3.859   7.843   4.272  0.3171  0.1262  0.6269
10429SOL    HW132728   3.800   7.776   4.240  0.7963 -0.4478  0.9247
10429SOL    HW232729   3.940   7.829   4.223  0.1954  0.9494  0.1726
10430SOL     OW32730   2.864   5.468  11.053  0.2833 -0.1212  0.3921
10430SOL    HW132731   2.927   5.537  11.032 -0.9617  0.9358 -0.0230
10430SOL    HW232732   2.826   5.445  10.968  1.3783 -2.0706  0.3718
10431SOL     OW32733   4.826   5.314   1.249  0.4423 -0.5056 -0.0849
10431SOL    HW132734   4.751   5.256   1.237 -0.5082  0.8502 -0.8723
10431SOL    HW232735   4.896   5.274   1.196 -0.2810 -0.7716 -0.8554
10432SOL     OW32736   0.920   7.028   3.279  0.2568  0.0375 -0.8856
10432SOL    HW132737   0.996   7.084   3.293 -1.4704  1.9684  1.6279
10432SOL    HW232738   0.886   7.056   3.194  1.2795  0.4763 -1.1648
10433SOL     OW32739   4.476   5.350   9.791  0.0229 -0.0823  0.5414
10433SOL    HW132740   4.567   5.325   9.779  0.5580  1.8010  0.3185
10433SOL    HW232741   4.458   5.335   9.884 -0.0257 -2.1505  0.2339
10434SOL     OW32742   1.490   2.878   7.319  0.2351  0.2972  0.1587
10434SOL    HW132743   1.465   2.907   7.231 -0.3456 -0.5921  0.0145
10434SOL    HW232744   1.567   2.929   7.340  0.5123  0.3665 -0.9681
10435SOL     OW32745   1.783   2.885   0.031 -0.4869 -0.1013 -0.4178
10435SOL    HW132746   1.865   2.931   0.049 -0.6345 -0.4838  1.5495
10435SOL    HW232747   1.810   2.794   0.018 -0.3324  0.2513 -2.9145
10436SOL     OW32748   0.944   5.932  12.305  0.0744 -0.5641 -0.7257
10436SOL    HW132749   0.909   5.994  12.369  3.7542  0.5810  0.4501
10436SOL    HW232750   0.889   5.855  12.313 -1.5847  0.7435  1.4580
10437SOL     OW32751   5.539   1.005   2.751  0.1055  0.4825  0.1384
10437SOL    HW132752   5.493   1.000   2.667 -0.0791 -2.0419  0.3046
10437SOL    HW232753   5.609   0.939   2.744  1.3251  1.6060  1.2712
10438SOL     OW32754   1.370   6.586  10.640 -0.1702 -0.5332 -0.1977
10438SOL    HW132755   1.412   6.598  10.725 -0.2772  1.6037 -0.4031
10438SOL    HW232756   1.294   6.530  10.659  0.0728 -0.4758  1.0159
10439SOL     OW32757   3.570   7.397   0.045 -0.4202  0.3707  0.3680
10439SOL    HW132758   3.533   7.378   0.131  2.0734 -1.0666  1.2414
10439SOL    HW232759   3.580   7.311   0.004  1.0304  0.7686 -0.1612
10440SOL     OW32760   6.443   7.097  11.568 -0.6162  0.0664 -0.3553
10440SOL    HW132761   6.439   7.019  11.514  1.8028 -0.9190  0.7393
10440SOL    HW232762   6.476   7.165  11.509 -1.8372  0.0550 -1.0761
10441SOL     OW32763   7.502   0.927   1.285  0.2426 -0.2591  0.1501
10441SOL    HW132764   7.549   0.845   1.272  0.2282 -0.3296  0.5382
10441SOL    HW232765   7.571   0.994   1.281  0.2120 -0.2613 -0.4741
10442SOL     OW32766   1.993   5.583   8.460  0.2327  0.3979 -0.1009
10442SOL    HW132767   1.969   5.607   8.371 -0.6045  0.5434  0.1513
10442SOL    HW232768   1.926   5.625   8.515  1.2191  1.0141  0.6599
10443SOL     OW32769   3.082   2.844  10.137 -0.6057 -0.2105 -0.0350
10443SOL    HW132770   3.150   2.894  10.183 -1.0344 -0.5237  0.9856
10443SOL    HW232771   3.110   2.753  10.147 -0.4791 -0.2561 -0.7904
10444SOL     OW32772   7.839   5.525  10.664 -0.3729  0.0480  0.5856
10444SOL    HW132773   7.863   5.518  10.571 -0.3463  0.8661  0.5161
10444SOL    HW232774   7.747   5.553  10.662 -0.1311  0.8943  0.7797
10445SOL     OW32775   1.635   4.610  10.995 -0.0973  0.2728 -0.6032
10445SOL    HW132776   1.709   4.629  11.054 -0.6812  0.1167  0.1993
10445SOL    HW232777   1.562   4.590  11.054 -0.3670 -1.1868 -1.3727
10446SOL     OW32778   4.130   1.037  11.641  0.8088  0.2702 -0.2349
10446SOL    HW132779   4.203   0.975  11.642  1.3527  0.8968 -0.1605
10446SOL    HW232780   4.137   1.081  11.556  1.5345  1.4954  0.4332
10447SOL     OW32781   4.938   7.270  11.020  0.8310 -0.1016  0.0682
10447SOL    HW132782   4.967   7.267  11.111  2.6780 -0.3622 -0.4830
10447SOL    HW232783   5.018   7.285  10.970 -0.2163  0.5393 -1.4927
10448SOL     OW32784   6.743   2.208   0.105 -0.0356 -0.1332  0.5022
10448SOL    HW132785   6.769   2.256   0.026  0.8384  0.7815  1.3053
10448SOL    HW232786   6.800   2.132   0.108  2.2782  1.5177  1.9044
10449SOL     OW32787   5.641   0.267   8.691  0.0874 -0.5466 -0.1982
10449SOL    HW132788   5.634   0.346   8.638 -0.3684  0.4108  1.2219
10449SOL    HW232789   5.579   0.206   8.651 -0.0910  0.0695 -0.8838
10450SOL     OW32790   4.294   5.793   6.379 -0.1172  0.0957 -0.1868
10450SOL    HW132791   4.224   5.858   6.385 -0.9892 -0.7999 -0.4512
10450SOL    HW232792   4.256   5.720   6.330  0.7502 -0.7376  0.3297
10451SOL     OW32793   7.242   5.314   9.287 -0.1477 -0.3841 -0.5926
10451SOL    HW132794   7.277   5.332   9.200 -0.8949 -1.0731 -1.0509
10451SOL    HW232795   7.215   5.400   9.320 -0.9498 -0.2489 -1.5314
10452SOL     OW32796   2.270   0.601  10.024 -0.2761 -0.1668 -0.2438
10452SOL    HW132797   2.340   0.652  10.065  0.7242 -0.0755 -1.9690
10452SOL    HW232798   2.314   0.553   9.953 -1.9281 -0.2876 -1.2250
10453SOL     OW32799   2.732   5.047   8.402  0.3335  0.4852 -0.6089
10453SOL    HW132800   2.783   4.995   8.463 -0.0118 -0.9212 -1.4820
10453SOL    HW232801   2.772   5.134   8.405 -0.7758  1.0151  2.9506
10454SOL     OW32802   0.679   7.777  11.208  0.1943  0.0393 -0.2405
10454SOL    HW132803   0.684   7.829  11.289  1.0479  2.0359 -1.5051
10454SOL    HW232804   0.715   7.692  11.233 -2.6056 -0.6183  2.2879
10455SOL     OW32805   1.039   7.280   6.641 -0.4759 -0.2575  0.0758
10455SOL    HW132806   0.970   7.228   6.599  0.7555 -0.9377 -1.2005
10455SOL    HW232807   1.068   7.225   6.714 -0.6423 -0.3843  0.0484
10456SOL     OW32808   5.085   6.155   0.625 -0.0836  0.1179  0.2846
10456SOL    HW132809   5.074   6.150   0.530  1.0503  1.1558  0.0793
10456SOL    HW232810   5.140   6.080   0.646  0.2349  0.2764  0.0231
10457SOL     OW32811   2.215   2.916  11.681  0.6141  0.0252 -0.3296
10457SOL    HW132812   2.166   2.980  11.733  0.3467 -0.7935  0.4394
10457SOL    HW232813   2.201   2.944  11.590  0.3862  0.9695 -0.0201
10458SOL     OW32814   7.267   4.075   0.432  0.3946 -0.8872 -0.0156
10458SOL    HW132815   7.315   4.146   0.475 -1.0740 -0.0922  0.3665
10458SOL    HW232816   7.335   4.018   0.397  1.6276 -0.3625  1.4144
10459SOL     OW32817   5.276   2.735  11.891 -0.1715 -0.4084 -0.2696
10459SOL    HW132818   5.343   2.697  11.834  1.4288 -0.1335  1.3395
10459SOL    HW232819   5.314   2.732  11.978 -1.6681  1.1576  0.5027
10460SOL     OW32820   5.418   5.463   1.004 -0.0735 -0.3539 -0.3770
10460SOL    HW132821   5.417   5.425   1.091 -1.1620 -0.6374 -0.5020
10460SOL    HW232822   5.372   5.547   1.014 -2.2025 -1.3740 -1.0823
10461SOL     OW32823   1.771   6.565   0.216 -0.4650 -0.2053  0.1633
10461SOL    HW132824   1.789   6.492   0.157  1.5406 -0.9797  1.6332
10461SOL    HW232825   1.679   6.553   0.242 -0.9789 -0.6091 -1.6536
10462SOL     OW32826   2.362   0.331   6.419 -0.4742  0.0067 -0.0949
10462SOL    HW132827   2.302   0.398   6.451 -0.2546 -0.8606  2.2803
10462SOL    HW232828   2.327   0.249   6.453 -0.0791 -0.9976 -1.9660
10463SOL     OW32829   0.280   0.950  10.778 -0.5303 -0.1230  0.4625
10463SOL    HW132830   0.356   0.905  10.742 -1.4617 -0.9040 -0.5946
10463SOL    HW232831   0.231   0.881  10.824 -0.5759  0.3840  1.1908
10464SOL     OW32832   6.726   1.966   2.039  0.0491 -0.0123 -0.0571
10464SOL    HW132833   6.644   2.012   2.058 -0.8684 -1.0600 -1.3706
10464SOL    HW232834   6.756   1.936   2.125 -0.5811  0.9285  0.5228
10465SOL     OW32835   6.485   5.051   4.004  0.3671  0.1587  0.2244
10465SOL    HW132836   6.417   5.093   4.056  0.0360 -1.9149  1.5888
10465SOL    HW232837   6.567   5.080   4.044  0.1811  0.3953  0.4371
10466SOL     OW32838   1.652   6.417   1.701 -0.1852 -0.6431  0.2337
10466SOL    HW132839   1.700   6.357   1.760 -1.4891 -1.1770  0.7930
10466SOL    HW232840   1.586   6.458   1.758 -0.2377  0.2551 -0.4653
10467SOL     OW32841   2.787   0.167   8.330 -0.4752  0.2669 -0.0470
10467SOL    HW132842   2.700   0.206   8.339 -1.1023 -0.7658 -1.3417
10467SOL    HW232843   2.818   0.157   8.420 -2.4974 -1.0452  0.5833
10468SOL     OW32844   7.545   7.768   4.853  0.9970  0.8493 -0.0148
10468SOL    HW132845   7.573   7.857   4.833  1.6664  0.6236 -0.1110
10468SOL    HW232846   7.623   7.725   4.886  0.6380  0.3396  0.1876
10469SOL     OW32847   3.677   0.946   2.447  0.0863 -0.3215  0.6456
10469SOL    HW132848   3.746   1.009   2.428  1.4795 -1.6037  1.2150
10469SOL    HW232849   3.634   0.932   2.363 -0.0394  1.1231  0.4511
10470SOL     OW32850   2.292   2.568   3.188 -0.2203  0.0955 -0.3093
10470SOL    HW132851   2.312   2.474   3.191  0.5069  0.2591  0.7025
10470SOL    HW232852   2.201   2.573   3.161 -0.5173 -0.9451  0.4533
10471SOL     OW32853   6.919   2.191  12.043 -0.4765  0.7359  0.1972
10471SOL    HW132854   6.967   2.114  12.014 -0.0161  1.8444 -2.2470
10471SOL    HW232855   6.846   2.199  11.981 -1.6309  1.2150  1.5671
10472SOL     OW32856   3.485   3.225   4.583 -0.0928  0.4352 -0.1041
10472SOL    HW132857   3.465   3.132   4.580  0.5171  0.2439  1.1502
10472SOL    HW232858   3.427   3.264   4.518 -0.2825 -0.8227 -0.7228
10473SOL     OW32859   3.002   1.044  12.400  0.2003 -0.3908 -0.3354
10473SOL    HW132860   3.097   1.028  12.407  0.6980  2.1325 -0.3731
10473SOL    HW232861   2.990   1.079  12.312 -0.9863 -1.6553 -0.7117
10474SOL     OW32862   4.082   7.185  11.224  0.4283 -0.1405  0.3264
10474SOL    HW132863   4.156   7.230  11.184 -0.2640  0.0473 -0.7845
10474SOL    HW232864   4.094   7.093  11.202 -0.0243 -0.0206 -0.4772
10475SOL     OW32865   5.525   6.791   6.196  0.0781 -0.2807  0.2854
10475SOL    HW132866   5.620   6.782   6.204 -0.1063 -1.4898  1.4140
10475SOL    HW232867   5.513   6.840   6.115  1.6770  0.2737  0.3470
10476SOL     OW32868   5.158   1.885   0.439  0.0837 -0.0669 -0.2723
10476SOL    HW132869   5.132   1.902   0.529  0.6270 -0.5727 -0.0062
10476SOL    HW232870   5.135   1.793   0.425  3.4480 -1.2171  0.6690
10477SOL     OW32871   6.478   6.339   0.897  0.4445  0.1984 -0.2197
10477SOL    HW132872   6.515   6.359   0.983 -0.6275  0.6347  0.1678
10477SOL    HW232873   6.414   6.408   0.882 -0.5882 -0.8011 -0.6081
10478SOL     OW32874   5.543   5.849   5.619  0.5006 -0.1370  0.0072
10478SOL    HW132875   5.582   5.907   5.684 -1.3929  1.6772 -0.3438
10478SOL    HW232876   5.550   5.898   5.536 -1.9768  0.0951 -0.1372
10479SOL     OW32877   0.073   4.323   5.404  0.4656  0.0587  0.2258
10479SOL    HW132878   0.083   4.241   5.452 -1.3818 -0.0559  0.4797
10479SOL    HW232879  -0.019   4.325   5.377  0.4401  2.0759  0.2889
10480SOL     OW32880   7.493   7.069   6.282  0.3400 -0.1190 -0.3840
10480SOL    HW132881   7.519   7.013   6.355 -1.2578  0.1582  0.4610
10480SOL    HW232882   7.432   7.015   6.232 -0.2714  0.4297 -0.2464
10481SOL     OW32883   6.013   7.127   9.406 -0.0211 -0.5769 -0.1085
10481SOL    HW132884   6.037   7.149   9.316  3.6883 -0.5869  0.6911
10481SOL    HW232885   5.961   7.047   9.399  1.1792 -1.2301 -2.2319
10482SOL     OW32886   4.855   0.506   8.583 -0.4653 -0.2987  0.6992
10482SOL    HW132887   4.917   0.542   8.647 -0.3849  1.5565 -0.3642
10482SOL    HW232888   4.884   0.541   8.499 -1.5799 -1.3155 -0.1414
10483SOL     OW32889   4.192   5.703   2.192 -0.3714 -0.3186 -0.0991
10483SOL    HW132890   4.141   5.738   2.265  0.2367 -0.8366  0.5913
10483SOL    HW232891   4.151   5.619   2.172  0.7199 -1.1805  1.0745
10484SOL     OW32892   3.751   6.067   4.246 -0.2420  0.0109  0.0867
10484SOL    HW132893   3.696   5.990   4.258 -1.6760  0.8039 -0.9958
10484SOL    HW232894   3.794   6.080   4.331 -0.6242 -1.4539  0.5342
10485SOL     OW32895   4.550   1.190   8.186 -0.7083 -0.3005 -0.7512
10485SOL    HW132896   4.607   1.162   8.258  0.4292  2.0538 -0.6160
10485SOL    HW232897   4.464   1.200   8.226 -0.2408  0.2738  0.1637
10486SOL     OW32898   3.680   1.358   7.301 -0.1479 -0.3589  0.4201
10486SOL    HW132899   3.671   1.368   7.206  0.1596 -1.8946  0.2159
10486SOL    HW232900   3.709   1.445   7.331 -1.6430  0.5686 -0.6770
10487SOL     OW32901   0.051   1.080   2.903 -0.5363  0.1649  0.5492
10487SOL    HW132902   0.043   0.985   2.916 -0.7980  0.0656 -0.3053
10487SOL    HW232903   0.130   1.104   2.953 -0.7310 -0.4203  1.1486
10488SOL     OW32904   5.616   1.102   4.814 -0.6908  0.3727  0.7055
10488SOL    HW132905   5.596   1.178   4.760  1.5087 -0.2059 -1.0738
10488SOL    HW232906   5.680   1.134   4.878 -0.3838  0.2260  0.4768
10489SOL     OW32907   0.002   5.674   8.481 -0.1260 -0.4822 -0.0826
10489SOL    HW132908   0.052   5.595   8.501 -2.5173 -1.7382  1.4109
10489SOL    HW232909  -0.068   5.644   8.424 -0.4569  0.8017 -0.3839
10490SOL     OW32910   7.049   6.437   6.726  0.3422  0.1842 -0.0768
10490SOL    HW132911   7.009   6.511   6.772  0.7161 -0.1280  0.7754
10490SOL    HW232912   7.054   6.465   6.635 -0.0454  0.9823  0.1417
10491SOL     OW32913   3.863   1.786  11.100 -0.8059 -0.0725 -0.4867
10491SOL    HW132914   3.842   1.844  11.173 -1.3956 -0.8913  0.0205
10491SOL    HW232915   3.924   1.722  11.137 -1.9337 -1.1301 -0.3979
10492SOL     OW32916   0.603   0.777   8.503 -0.5311 -0.0587 -0.1015
10492SOL    HW132917   0.613   0.819   8.588 -1.7490 -1.4520  0.7865
10492SOL    HW232918   0.617   0.847   8.439  1.0974  0.8771  1.1975
10493SOL     OW32919   0.610   3.344  10.057 -0.4209 -0.0312 -0.2002
10493SOL    HW132920   0.603   3.425  10.007 -0.3188  0.1754  0.1191
10493SOL    HW232921   0.683   3.297  10.016 -1.3529 -0.5998 -1.2739
10494SOL     OW32922   3.126   7.197   7.505 -0.5455  0.4888 -0.5147
10494SOL    HW132923   3.104   7.250   7.582 -1.3643  0.6903 -0.8754
10494SOL    HW232924   3.218   7.218   7.487  0.3093 -1.1145  1.6215
10495SOL     OW32925   0.521   7.578   1.497 -0.6517 -0.3985  0.2234
10495SOL    HW132926   0.446   7.627   1.464 -0.0854 -0.9271 -2.0741
10495SOL    HW232927   0.558   7.536   1.419  2.4993  0.4573  1.0755
10496SOL     OW32928   2.999   7.831   5.771  0.1056  0.2487 -0.2082
10496SOL    HW132929   2.965   7.748   5.804 -0.4641  0.2557 -0.7505
10496SOL    HW232930   3.000   7.820   5.676  1.4979  0.3053 -0.2190
10497SOL     OW32931   1.248   7.608   6.014 -0.2403 -0.3270 -0.9146
10497SOL    HW132932   1.170   7.625   5.961  1.2109 -1.6565 -3.6604
10497SOL    HW232933   1.313   7.575   5.952  1.8454 -1.3162  1.6148
10498SOL     OW32934   5.964   6.600   4.576  0.1597  0.4989 -0.1789
10498SOL    HW132935   5.985   6.663   4.507 -0.2395  1.3363  0.4462
10498SOL    HW232936   5.893   6.641   4.625  1.0894  0.3914  1.3449
10499SOL     OW32937   4.472   5.995   8.871 -0.0409  1.0941  0.2896
10499SOL    HW132938   4.382   6.026   8.857  0.0836  1.3563  0.0557
10499SOL    HW232939   4.481   5.923   8.809 -0.1589  0.9337  0.4598
10500SOL     OW32940   4.910   6.434   7.376 -0.0418 -0.7029  0.2951
10500SOL    HW132941   4.828   6.386   7.375 -0.4373 -0.0784  1.2602
10500SOL    HW232942   4.978   6.367   7.368 -0.6290 -1.1335 -1.9222
10501SOL     OW32943   0.020   5.928   0.958  0.0356 -0.2208  0.5585
10501SOL    HW132944  -0.012   5.871   1.028 -0.1556 -1.1053 -0.2217
10501SOL    HW232945  -0.054   5.935   0.898 -0.1862  1.4659  0.9994
10502SOL     OW32946   4.562   4.843  10.457 -0.3881  0.2412  0.5920
10502SOL    HW132947   4.643   4.827  10.409 -0.0840  1.0129  0.8386
10502SOL    HW232948   4.517   4.910  10.405 -0.6136  0.2052  0.7437
10503SOL     OW32949   2.471   0.967   7.053 -0.9066  0.0192  0.0646
10503SOL    HW132950   2.416   0.977   7.131 -1.8798 -0.0365 -0.6044
10503SOL    HW232951   2.558   0.998   7.081 -1.9993  3.3195  0.2553
10504SOL     OW32952   5.254   3.032  11.828 -0.5973  0.6035 -0.2086
10504SOL    HW132953   5.275   2.965  11.893  0.2519  1.1807  0.1209
10504SOL    HW232954   5.247   3.113  11.879 -0.3870  0.9815 -0.7770
10505SOL     OW32955   0.066   7.027   6.033  0.2077 -0.1047  0.1976
10505SOL    HW132956   0.146   7.035   6.085  0.5015 -0.3921 -0.1999
10505SOL    HW232957  -0.003   7.062   6.089  0.2185 -2.0048  1.4963
10506SOL     OW32958   5.404   4.846   5.449  0.2559 -0.8861 -0.4485
10506SOL    HW132959   5.465   4.872   5.380 -0.3481 -0.8305 -0.9749
10506SOL    HW232960   5.351   4.776   5.410 -0.1959 -0.7465 -0.0990
10507SOL     OW32961   4.721   6.403  11.146 -0.5424  0.0458  0.1406
10507SOL    HW132962   4.646   6.373  11.095 -1.2570 -1.2405  1.8813
10507SOL    HW232963   4.748   6.327  11.198  0.8706  0.9837  0.8566
10508SOL     OW32964   3.911   5.977   9.792  0.5974  0.1639  0.0116
10508SOL    HW132965   3.840   5.920   9.762  1.2034 -0.5312 -0.1362
10508SOL    HW232966   3.911   6.050   9.730 -0.2802  0.4109  0.2872
10509SOL     OW32967   3.023   6.213   4.643  0.1855  0.1359  0.0238
10509SOL    HW132968   3.062   6.195   4.557  1.2398 -0.9503  0.6887
10509SOL    HW232969   2.930   6.222   4.626  0.0841 -2.1595 -0.9826
10510SOL     OW32970   7.067   7.472   8.870 -0.1149 -0.0634 -0.4163
10510SOL    HW132971   7.082   7.384   8.837 -1.7403 -0.6819  0.3923
10510SOL    HW232972   7.052   7.525   8.792 -0.8196 -0.8723 -0.8496
10511SOL     OW32973   4.308   3.242   5.172  0.1100 -0.5204  0.2315
10511SOL    HW132974   4.392   3.287   5.185 -0.0684  0.9515 -2.7429
10511SOL    HW232975   4.247   3.288   5.230  0.5187  1.3197 -0.7246
10512SOL     OW32976   4.999   1.497   5.643  0.9665 -0.3941  0.0367
10512SOL    HW132977   4.914   1.476   5.604  0.0013  1.2334  1.1426
10512SOL    HW232978   5.017   1.423   5.701 -0.1744 -0.3107  0.5264
10513SOL     OW32979   5.952   4.331   7.181 -0.3582  0.2492  0.1399
10513SOL    HW132980   6.016   4.313   7.112 -1.4069  0.1232 -0.8535
10513SOL    HW232981   5.937   4.246   7.222 -1.3262 -0.1459 -0.9591
10514SOL     OW32982   6.245   1.662   6.103  0.0536 -0.5415  0.0610
10514SOL    HW132983   6.240   1.660   6.199  0.6277 -0.8118  0.0953
10514SOL    HW232984   6.182   1.595   6.075 -0.9923  0.3600  0.1929
10515SOL     OW32985   2.163   4.891   5.454 -0.5487  0.3298  0.5524
10515SOL    HW132986   2.230   4.956   5.476  0.2174  0.1022 -0.9666
10515SOL    HW232987   2.081   4.940   5.454  0.0216  1.3433 -0.5962
10516SOL     OW32988   3.955   6.972   1.900  0.4283  0.1535 -0.3143
10516SOL    HW132989   3.867   6.970   1.936  0.3362 -0.6792 -0.5511
10516SOL    HW232990   3.944   6.944   1.809  1.1082 -1.6224  0.0903
10517SOL     OW32991   6.949   3.727  11.247  0.1670 -0.4041  1.0499
10517SOL    HW132992   7.015   3.695  11.308  0.3766 -0.0593  1.0047
10517SOL    HW232993   6.875   3.751  11.303  0.4078  0.0373  1.1883
10518SOL     OW32994   0.083   6.645   3.281 -0.0532 -0.3585  0.4812
10518SOL    HW132995   0.081   6.630   3.186 -0.7869 -1.4430  0.6403
10518SOL    HW232996   0.040   6.567   3.318 -0.5058  0.4201  1.6559
10519SOL     OW32997   2.788   4.373  11.588 -0.4126  0.0443  0.6556
10519SOL    HW132998   2.747   4.287  11.579 -1.1666  0.2335  1.9054
10519SOL    HW232999   2.881   4.355  11.602  0.0048 -0.4017 -2.1458
10520SOL     OW33000   4.200   5.612   1.600 -0.4796 -0.3037 -0.8806
10520SOL    HW133001   4.270   5.587   1.539 -1.2848 -0.1111 -1.9297
10520SOL    HW233002   4.238   5.604   1.687  0.9753  0.1910 -1.4507
10521SOL     OW33003   3.375   6.547  11.649  0.6992  0.6810  0.6286
10521SOL    HW133004   3.337   6.487  11.585  0.9960 -0.6634  1.6698
10521SOL    HW233005   3.300   6.589  11.690  0.4138 -0.3239  1.1449
10522SOL     OW33006   0.815   4.207   7.892 -0.1856  0.4161 -0.3509
10522SOL    HW133007   0.812   4.222   7.797 -1.3445  1.9831 -0.1121
10522SOL    HW233008   0.771   4.123   7.905 -2.2864  1.3424 -1.0399
10523SOL     OW33009   4.846   6.207   7.840  0.1714  0.2917 -0.1753
10523SOL    HW133010   4.765   6.221   7.791 -0.3967  0.6584  0.8359
10523SOL    HW233011   4.914   6.245   7.784 -0.2771 -0.4766 -1.2626
10524SOL     OW33012   7.149   6.158   7.533  0.7239  0.2783 -0.0206
10524SOL    HW133013   7.165   6.064   7.541  0.5906  0.3411  1.1865
10524SOL    HW233014   7.236   6.196   7.520  1.1608  0.2279  2.3270
10525SOL     OW33015   3.443   3.733   5.269  0.2150  0.1747 -0.3791
10525SOL    HW133016   3.538   3.722   5.273  0.2591 -1.0228 -2.5903
10525SOL    HW233017   3.417   3.686   5.189 -2.2167  0.6406  0.0436
10526SOL     OW33018   0.677   6.442   6.576  0.3334 -0.9637  0.2727
10526SOL    HW133019   0.659   6.535   6.564  2.3503 -0.4149  1.0250
10526SOL    HW233020   0.757   6.426   6.525 -0.9933 -2.7732 -1.3956
10527SOL     OW33021   5.202   0.644  11.482  0.2651  0.2680  0.4105
10527SOL    HW133022   5.212   0.565  11.535  0.0680  0.1447  0.2669
10527SOL    HW233023   5.212   0.717  11.544  0.9821  0.1392  0.4520
10528SOL     OW33024   0.067   7.271   5.791 -0.6077  0.3829  0.4254
10528SOL    HW133025  -0.011   7.296   5.840 -0.9568 -1.0494  0.6477
10528SOL    HW233026   0.128   7.240   5.858 -0.7394 -0.7140  0.0524
10529SOL     OW33027   2.388   5.611  11.785 -0.6507 -0.3160  0.5175
10529SOL    HW133028   2.428   5.539  11.737  0.6160  0.3473  0.5270
10529SOL    HW233029   2.339   5.659  11.718  2.3954  1.5350 -0.6214
10530SOL     OW33030   6.621   4.140   8.213  0.0132  0.0617  0.6834
10530SOL    HW133031   6.621   4.073   8.282  1.3830 -1.4401 -0.6801
10530SOL    HW233032   6.616   4.090   8.131 -2.4643  1.8294 -0.3523
10531SOL     OW33033   7.555   4.886   3.034 -0.0226  0.2088  0.3968
10531SOL    HW133034   7.496   4.814   3.014 -0.2497 -0.0022  1.7326
10531SOL    HW233035   7.501   4.965   3.024 -0.5833  0.0102  1.7288
10532SOL     OW33036   4.218   0.373   2.166 -0.5041 -0.2051 -0.3398
10532SOL    HW133037   4.240   0.456   2.208 -0.1671 -1.8756  3.0633
10532SOL    HW233038   4.297   0.350   2.117  0.9112 -0.3467  1.9048
10533SOL     OW33039   2.107   3.741  12.380  0.5625  0.6683 -0.7165
10533SOL    HW133040   2.020   3.772  12.356 -1.4808 -2.2700  2.0470
10533SOL    HW233041   2.123   3.666  12.323  0.6209  0.3422 -0.2790
10534SOL     OW33042   4.555   6.235   7.762  0.1274 -0.0431  0.3831
10534SOL    HW133043   4.536   6.166   7.826 -0.5157 -1.0413 -0.8407
10534SOL    HW233044   4.493   6.305   7.784 -1.3466 -1.0931 -0.1996
10535SOL     OW33045   4.748   2.189   8.201  0.6584  0.1569 -0.1861
10535SOL    HW133046   4.748   2.236   8.118  0.4203 -1.5704 -1.2159
10535SOL    HW233047   4.818   2.230   8.252  0.1551  1.9036 -0.8127
10536SOL     OW33048   7.454   2.985   7.674  0.3367 -0.1157 -0.6597
10536SOL    HW133049   7.459   2.954   7.583 -1.3118 -1.2122 -0.4263
10536SOL    HW233050   7.365   2.963   7.701  1.3299 -1.4959  1.8192
10537SOL     OW33051   3.794   1.766   1.760 -0.2088  0.4747 -0.0898
10537SOL    HW133052   3.826   1.850   1.727 -0.7377  0.6875 -0.0879
10537SOL    HW233053   3.700   1.781   1.775 -0.6247 -0.5245 -1.4274
10538SOL     OW33054   5.137   0.395  11.800  0.0967  0.1850  0.0385
10538SOL    HW133055   5.125   0.490  11.810 -0.0914 -0.0859  3.3353
10538SOL    HW233056   5.049   0.359  11.802  0.1470 -0.0980 -1.5269
10539SOL     OW33057   1.548   6.183  11.378  0.1603 -0.3086  0.2899
10539SOL    HW133058   1.532   6.093  11.349  0.0996 -0.2942  0.2768
10539SOL    HW233059   1.517   6.185  11.468  0.0619 -0.2730  0.2557
10540SOL     OW33060   0.695   4.220   0.837  0.2857  0.5944  0.2785
10540SOL    HW133061   0.751   4.148   0.809  0.9524  0.3173  2.1706
10540SOL    HW233062   0.701   4.285   0.767  1.6297 -0.1535 -0.3263
10541SOL     OW33063   1.491   0.195   3.268 -0.2599  0.5667  0.5770
10541SOL    HW133064   1.455   0.193   3.357  0.3329  1.6107  0.8594
10541SOL    HW233065   1.571   0.246   3.276  0.1053  0.1846 -0.4628
10542SOL     OW33066   4.172   0.682   7.517 -0.7726 -0.0583  0.1032
10542SOL    HW133067   4.095   0.739   7.524 -0.3482  0.5847 -0.3728
10542SOL    HW233068   4.208   0.678   7.605  0.2795  1.9579 -0.1722
10543SOL     OW33069   6.794   0.288   2.135 -0.1737  0.4374  0.9925
10543SOL    HW133070   6.824   0.359   2.192 -0.5414  0.2704  1.3961
10543SOL    HW233071   6.832   0.309   2.049 -0.2238  1.0835  1.1237
10544SOL     OW33072   7.082   6.838  11.441 -0.3192 -0.4288  0.5235
10544SOL    HW133073   7.155   6.833  11.503 -0.1044  0.5354  0.3543
10544SOL    HW233074   7.004   6.818  11.494 -0.1052  0.1184  1.0520
10545SOL     OW33075   6.693   0.016  11.918 -0.2304  0.0760  0.3542
10545SOL    HW133076   6.655  -0.029  11.842  1.2060 -0.3606 -0.1326
10545SOL    HW233077   6.718   0.102  11.884  0.3414 -0.0898  0.3554
10546SOL     OW33078   0.525   4.803   8.728 -0.2062 -0.4617  0.2409
10546SOL    HW133079   0.614   4.833   8.749 -0.2402  0.6757 -1.0937
10546SOL    HW233080   0.468   4.861   8.778 -0.2438  1.1535 -1.5570
10547SOL     OW33081   2.961   6.313   5.456 -0.4704 -0.5474  0.2030
10547SOL    HW133082   2.876   6.268   5.452 -0.0150 -1.5247  1.1349
10547SOL    HW233083   2.995   6.307   5.366 -1.0768 -0.7472 -0.0214
10548SOL     OW33084   6.376   5.137   2.508 -0.2118  0.0968  0.2571
10548SOL    HW133085   6.455   5.180   2.476 -0.2954 -0.9578 -1.4597
10548SOL    HW233086   6.305   5.192   2.474 -0.2993 -0.9904 -1.3984
10549SOL     OW33087   6.821   4.438   4.336  0.4725 -0.2713  0.0506
10549SOL    HW133088   6.894   4.445   4.274  0.6762 -0.6426  0.2445
10549SOL    HW233089   6.744   4.424   4.281  0.6385 -0.5073 -0.1262
10550SOL     OW33090   7.212   4.336  10.298 -0.2631  0.0377  0.0277
10550SOL    HW133091   7.244   4.410  10.351  0.0705 -0.9015  1.1837
10550SOL    HW233092   7.284   4.319  10.237 -0.7584  1.3026 -0.9487
10551SOL     OW33093   1.164   1.687   1.498  0.0384 -0.2555  0.4269
10551SOL    HW133094   1.240   1.721   1.545 -0.3157  0.1846  0.6918
10551SOL    HW233095   1.091   1.741   1.528 -0.4255 -0.8314  0.3678
10552SOL     OW33096   3.012   5.303   2.151  0.0969 -0.5257 -0.4083
10552SOL    HW133097   3.019   5.381   2.096  0.5228 -0.6103 -0.4746
10552SOL    HW233098   3.100   5.266   2.153 -0.0783 -0.9475 -0.2884
10553SOL     OW33099   1.630   1.496   3.548  0.3457  0.7957 -0.1956
10553SOL    HW133100   1.676   1.480   3.466  1.6406 -3.6034  1.1022
10553SOL    HW233101   1.543   1.461   3.534  0.4622  0.3466  0.1893
10554SOL     OW33102   1.266   5.534   1.784  0.5227 -0.4229  0.6102
10554SOL    HW133103   1.290   5.441   1.787  1.0083 -0.2873  1.1480
10554SOL    HW233104   1.296   5.569   1.868  1.7599  0.5494 -0.1891
10555SOL     OW33105   1.039   6.267   8.605  0.2686 -0.0965  0.1023
10555SOL    HW133106   1.094   6.345   8.607  0.1154  0.0054  0.4898
10555SOL    HW233107   0.957   6.295   8.565 -1.2983  0.9762  3.5942
10556SOL     OW33108   2.631   6.822   4.776 -0.3312 -0.0061  0.2188
10556SOL    HW133109   2.555   6.817   4.718 -0.3188  0.7820  0.1115
10556SOL    HW233110   2.598   6.867   4.854  0.5711  2.7548 -0.8648
10557SOL     OW33111   2.098   6.158  11.224 -0.5560  0.1805 -0.1087
10557SOL    HW133112   2.063   6.127  11.141  0.0595 -2.2879  0.4780
10557SOL    HW233113   2.193   6.152  11.214 -0.4728  0.0118  0.7084
10558SOL     OW33114   7.838   6.569   7.226 -0.2663 -0.2470 -0.4495
10558SOL    HW133115   7.842   6.480   7.261 -1.4912  0.6930  2.3747
10558SOL    HW233116   7.746   6.581   7.202 -0.9392  1.2444  2.4115
10559SOL     OW33117   6.786   7.036   8.514  0.2581  0.6023  0.2816
10559SOL    HW133118   6.759   7.115   8.467  1.7548  1.8418  1.3646
10559SOL    HW233119   6.882   7.040   8.513  0.3446 -0.3503  1.7403
10560SOL     OW33120   0.064   3.956   3.660  0.1624  0.2408  0.5290
10560SOL    HW133121   0.075   3.926   3.751  1.4169  1.6639  0.8962
10560SOL    HW233122   0.013   4.037   3.667  1.1779  0.9450  0.1056
10561SOL     OW33123   7.857   3.647   5.422 -0.7261 -0.1895 -0.0260
10561SOL    HW133124   7.859   3.692   5.338 -2.8570 -0.1462 -0.1245
10561SOL    HW233125   7.931   3.587   5.419 -0.5623  0.0358 -1.7950
10562SOL     OW33126   2.594   0.989   3.301  0.4085  0.4201  0.4606
10562SOL    HW133127   2.667   1.047   3.325  0.3818  2.0696 -2.9122
10562SOL    HW233128   2.516   1.042   3.314  0.3457  1.0912 -2.1404
10563SOL     OW33129   6.143   2.701   7.950 -0.4599  0.1670  0.6728
10563SOL    HW133130   6.230   2.663   7.965 -0.4570 -1.6195 -2.8327
10563SOL    HW233131   6.161   2.785   7.907 -0.3379 -0.9446 -1.5926
10564SOL     OW33132   7.638   6.668  11.965  0.1077  0.3761  0.2019
10564SOL    HW133133   7.602   6.636  12.048 -0.1299 -0.2357 -0.1271
10564SOL    HW233134   7.626   6.595  11.904 -2.7341  1.8840 -1.2745
10565SOL     OW33135   1.587   6.370   7.404  0.4771 -0.0720  0.2567
10565SOL    HW133136   1.603   6.408   7.317 -0.9690  0.3813  0.1631
10565SOL    HW233137   1.664   6.395   7.455  1.3752 -0.3911 -0.8986
10566SOL     OW33138   6.778   2.757   2.338 -0.0592 -0.0330 -0.0813
10566SOL    HW133139   6.716   2.704   2.388  0.1114 -0.2722 -0.1181
10566SOL    HW233140   6.724   2.807   2.277 -0.1320 -1.2666 -1.0770
10567SOL     OW33141   1.594   3.715   3.911 -0.1216 -0.2327  0.3553
10567SOL    HW133142   1.577   3.712   3.817 -0.3175  1.8142  0.2747
10567SOL    HW233143   1.507   3.705   3.951 -0.8059  3.3785  0.1191
10568SOL     OW33144   1.294   4.763   0.339 -0.2365 -0.2934  0.1767
10568SOL    HW133145   1.312   4.714   0.258  0.0228 -0.4943  0.3539
10568SOL    HW233146   1.201   4.785   0.334 -0.0530  0.3972 -0.5657
10569SOL     OW33147   2.007   4.776   0.127 -0.1996 -0.1955  0.3177
10569SOL    HW133148   2.095   4.761   0.161 -0.3272 -1.4021  0.1349
10569SOL    HW233149   1.990   4.702   0.069 -1.7945 -0.6348  1.2619
10570SOL     OW33150   7.490   7.032   6.915 -0.3236 -0.1137  0.1252
10570SOL    HW133151   7.464   7.074   6.997  0.3902 -0.9780  0.8097
10570SOL    HW233152   7.545   6.958   6.942  0.8251  0.2319 -1.1667
10571SOL     OW33153   0.626   2.508   6.260  0.5879 -0.0161 -0.6998
10571SOL    HW133154   0.611   2.417   6.286  0.9960  0.0768 -0.1152
10571SOL    HW233155   0.654   2.503   6.169  0.9748 -0.5060 -0.5547
10572SOL     OW33156   1.608   7.128   6.267 -0.0753 -0.2575  0.6829
10572SOL    HW133157   1.516   7.138   6.290  0.5431  1.0734  2.8667
10572SOL    HW233158   1.607   7.094   6.177 -2.6700 -1.3351  1.0430
10573SOL     OW33159   1.417   1.024   8.834 -0.3453  0.3120 -0.1452
10573SOL    HW133160   1.326   1.044   8.853 -0.8290 -0.2650 -1.7241
10573SOL    HW233161   1.423   0.929   8.842  0.0699  0.3290 -0.2342
10574SOL     OW33162   4.740   4.000   8.863  0.0394  0.2401 -0.1365
10574SOL    HW133163   4.755   4.087   8.826  0.7358  0.0032 -0.4333
10574SOL    HW233164   4.736   4.013   8.957 -1.4922  0.8193 -0.2512
10575SOL     OW33165   0.770   1.185   8.648 -0.0338  0.2056  0.1431
10575SOL    HW133166   0.708   1.157   8.580  0.2538  0.1831 -0.1120
10575SOL    HW233167   0.726   1.259   8.691 -0.6716 -0.4552  0.6385
10576SOL     OW33168   7.515   3.548   2.082 -0.5158 -0.2236  0.1775
10576SOL    HW133169   7.600   3.551   2.126 -0.7188  0.2893  0.5494
10576SOL    HW233170   7.524   3.609   2.009 -1.4187  2.0993  1.8402
10577SOL     OW33171   2.610   6.405   4.767  0.2815  0.1881 -0.1311
10577SOL    HW133172   2.637   6.320   4.803  0.3976 -0.1866 -1.0759
10577SOL    HW233173   2.532   6.429   4.817  1.0350  0.1911  1.0855
10578SOL     OW33174   0.895   5.755   3.113 -0.1355 -0.5554  0.6638
10578SOL    HW133175   0.923   5.688   3.051  0.2282 -0.6751  0.9515
10578SOL    HW233176   0.921   5.721   3.199  1.6690  0.6962  0.6919
10579SOL     OW33177   2.923   7.073   6.295  0.1458 -0.3050  0.0581
10579SOL    HW133178   2.861   7.133   6.254 -1.0591 -0.7530  1.1527
10579SOL    HW233179   2.876   7.038   6.371  1.4583 -1.2787  0.4619
10580SOL     OW33180   0.970   7.654   4.110  0.5251  0.3460 -0.2420
10580SOL    HW133181   0.947   7.592   4.042 -0.0667  0.6380 -0.3127
10580SOL    HW233182   1.023   7.603   4.172  0.7149 -0.0214 -0.7025
10581SOL     OW33183   3.492   2.410   8.266 -0.1205 -0.5296  0.5434
10581SOL    HW133184   3.530   2.393   8.180 -2.2970 -1.0390 -0.3879
10581SOL    HW233185   3.553   2.471   8.308  0.8094  0.0155 -1.4932
10582SOL     OW33186   3.876   4.139   6.874  0.4609 -0.1921 -0.0405
10582SOL    HW133187   3.875   4.062   6.931  2.5635 -0.8060 -0.7513
10582SOL    HW233188   3.822   4.115   6.799 -1.2191  0.1236  1.0238
10583SOL     OW33189   1.174   3.692   0.382  0.5353  0.2682  0.5686
10583SOL    HW133190   1.159   3.604   0.416  0.4128 -0.3141 -0.9490
10583SOL    HW233191   1.247   3.725   0.435 -1.0115  0.2703  2.8682
10584SOL     OW33192   3.941   0.333   7.534  0.2921  0.0467  0.0905
10584SOL    HW133193   3.996   0.390   7.480 -0.1092 -1.1415 -1.6372
10584SOL    HW233194   3.896   0.277   7.471  0.3876 -1.9260  1.7111
10585SOL     OW33195   4.764   0.808   9.672  0.7036 -0.5479  0.1353
10585SOL    HW133196   4.711   0.809   9.752  2.0572 -0.3947  1.0676
10585SOL    HW233197   4.818   0.887   9.678  0.0648  0.0570 -1.4952
10586SOL     OW33198   7.735   1.288   1.072 -0.2891  0.2319  0.0992
10586SOL    HW133199   7.797   1.360   1.064 -0.5275  0.4769  0.4300
10586SOL    HW233200   7.721   1.258   0.982  1.6279 -0.9644  0.1409
10587SOL     OW33201   5.327   3.205   6.230  0.3559 -0.5045  0.4631
10587SOL    HW133202   5.351   3.153   6.306 -0.5706 -1.9152 -0.1769
10587SOL    HW233203   5.354   3.152   6.155  3.4142  1.8397 -0.2913
10588SOL     OW33204   5.465   7.723   5.102 -0.0295  0.2124 -0.5117
10588SOL    HW133205   5.387   7.761   5.061 -0.0366  0.1038 -0.5971
10588SOL    HW233206   5.485   7.782   5.175  0.2493  0.6594 -0.9428
10589SOL     OW33207   7.789   2.309   0.095 -0.0920  0.3133  0.1468
10589SOL    HW133208   7.827   2.237   0.045 -1.1816 -1.2141  1.4399
10589SOL    HW233209   7.766   2.375   0.029  1.2261 -0.3506 -1.0255
10590SOL     OW33210   2.801   3.876  11.971 -0.2236  0.0289 -0.0192
10590SOL    HW133211   2.874   3.815  11.961 -1.4496 -1.5556  0.2076
10590SOL    HW233212   2.824   3.950  11.915  1.2766 -0.6854 -0.4064
10591SOL     OW33213   7.604   4.558  10.075 -0.3406  0.0276  0.0074
10591SOL    HW133214   7.685   4.529  10.032 -0.0908 -0.2207  0.6374
10591SOL    HW233215   7.605   4.653  10.068  0.2547  0.0587  0.4466
10592SOL     OW33216   0.612   0.847  10.970  0.0354  0.6627  0.0688
10592SOL    HW133217   0.630   0.870  11.062 -1.5713 -1.2807  0.9296
10592SOL    HW233218   0.656   0.764  10.957 -0.6599  0.3880 -0.5877
10593SOL     OW33219   4.386   6.808   1.325 -0.2459  0.0673  0.2928
10593SOL    HW133220   4.474   6.824   1.291  0.1939  0.6240  1.5929
10593SOL    HW233221   4.394   6.728   1.376 -0.7995 -0.5505 -0.5677
10594SOL     OW33222   4.257   1.957   4.755 -0.3160  0.2874 -0.2806
10594SOL    HW133223   4.346   1.990   4.752 -0.4692  1.0364  1.7549
10594SOL    HW233224   4.213   2.011   4.820 -2.3947  0.2100 -1.5213
10595SOL     OW33225   6.197   1.839   4.934  0.3447  0.6252  0.0142
10595SOL    HW133226   6.246   1.872   5.009  0.0016  1.6306 -0.1791
10595SOL    HW233227   6.262   1.796   4.878  0.4324 -1.1910  1.4184
10596SOL     OW33228   3.789   1.250   1.197 -0.3788 -0.0610  0.2762
10596SOL    HW133229   3.742   1.172   1.228 -0.2984 -0.4019 -0.4502
10596SOL    HW233230   3.726   1.296   1.142  0.0112 -0.3308 -0.4060
10597SOL     OW33231   2.523   5.523   6.595  0.0393 -0.8132  0.5142
10597SOL    HW133232   2.455   5.464   6.563  0.6337 -1.1357 -0.1864
10597SOL    HW233233   2.596   5.511   6.534 -0.2766  1.6084 -0.4646
10598SOL     OW33234   1.025   6.945   3.958  0.0261  0.0002 -0.1348
10598SOL    HW133235   0.995   7.000   3.886 -2.1337  0.1296  0.7925
10598SOL    HW233236   1.120   6.961   3.963 -0.2252  2.1044 -1.1491
10599SOL     OW33237   1.325   7.217   0.620  0.6364 -0.0194  0.0549
10599SOL    HW133238   1.371   7.157   0.678  0.4633  1.7773  2.1579
10599SOL    HW233239   1.234   7.216   0.650  0.7914  1.8981  0.7491
10600SOL     OW33240   5.482   1.829   9.418  0.0185 -0.6620  0.0558
10600SOL    HW133241   5.557   1.773   9.397  0.1545 -0.0023 -1.3566
10600SOL    HW233242   5.519   1.900   9.471 -0.1005 -1.7136  1.5897
10601SOL     OW33243   3.260   6.575  10.102  0.6263  0.4494  0.0195
10601SOL    HW133244   3.276   6.653  10.049 -0.0216  2.3567  2.4458
10601SOL    HW233245   3.224   6.608  10.184 -2.6016 -2.5817  0.0954
10602SOL     OW33246   2.210   7.791   0.071 -0.0512 -0.1198  0.1182
10602SOL    HW133247   2.304   7.776   0.060 -0.0619 -0.8114  0.9052
10602SOL    HW233248   2.205   7.865   0.132  0.0101 -1.6753  2.1061
10603SOL     OW33249   0.985   1.569   4.247  0.5673 -0.1688 -0.0243
10603SOL    HW133250   0.946   1.503   4.190  0.4422 -2.2226  2.2728
10603SOL    HW233251   1.063   1.599   4.200  0.2894 -1.5077 -1.4212
10604SOL     OW33252   2.133   7.563   6.395 -0.3899  0.2691  0.0381
10604SOL    HW133253   2.041   7.541   6.380 -0.2472  0.1819 -0.7652
10604SOL    HW233254   2.180   7.512   6.329  0.2335  0.3368  0.4299
10605SOL     OW33255   5.552   7.755  11.569  0.2259  0.0839  0.0316
10605SOL    HW133256   5.591   7.806  11.497  1.0911  1.2383  1.2680
10605SOL    HW233257   5.467   7.727  11.535  0.8054  0.1930 -1.6120
10606SOL     OW33258   2.969   7.185   8.643 -0.6093  0.1916 -0.0078
10606SOL    HW133259   3.041   7.210   8.584  0.0591 -0.8863  0.3376
10606SOL    HW233260   3.012   7.144   8.718 -1.5579  0.0709  0.4840
10607SOL     OW33261   1.355   1.642   3.898  0.3777  0.2563  0.1667
10607SOL    HW133262   1.336   1.593   3.978 -0.0950  0.4694  0.1863
10607SOL    HW233263   1.276   1.693   3.882  0.8052  0.8967  0.0573
10608SOL     OW33264   6.723   4.897   9.082 -0.4615 -0.4426 -0.4938
10608SOL    HW133265   6.665   4.878   9.156 -0.1831  0.6924  0.0377
10608SOL    HW233266   6.692   4.982   9.049  1.0786  0.3273 -0.0136
10609SOL     OW33267   0.665   4.022   3.460  0.3723 -0.7081  0.0782
10609SOL    HW133268   0.603   3.964   3.505 -3.8141  3.5033  0.6028
10609SOL    HW233269   0.681   4.093   3.522  0.4169  1.6139 -2.3769
10610SOL     OW33270   5.843   3.507  12.193  0.2900 -0.1451 -0.0550
10610SOL    HW133271   5.937   3.495  12.174  0.7585  0.4914  1.6876
10610SOL    HW233272   5.817   3.426  12.236  0.1882 -0.0747  0.0153
10611SOL     OW33273   7.739   4.444   4.488  0.7740 -0.1734 -0.1730
10611SOL    HW133274   7.706   4.467   4.575  2.7854  1.5577  0.1976
10611SOL    HW233275   7.813   4.386   4.505  0.1556 -1.2017 -0.8543
10612SOL     OW33276   4.291   0.971   9.566  0.0628 -0.2760  0.2184
10612SOL    HW133277   4.270   1.017   9.648  0.9864 -0.3552  0.5144
10612SOL    HW233278   4.374   1.009   9.538 -0.1341 -0.4063 -0.5746
10613SOL     OW33279   1.267   1.629   6.711  0.1107 -0.5956  0.0786
10613SOL    HW133280   1.299   1.699   6.768 -1.3856 -0.1072  0.3615
10613SOL    HW233281   1.329   1.627   6.638 -0.3655  1.7382 -0.4617
10614SOL     OW33282   0.695   4.629   4.853 -0.4319  0.2822  0.5825
10614SOL    HW133283   0.698   4.538   4.884 -0.7242  0.6017  1.5917
10614SOL    HW233284   0.786   4.658   4.853 -0.4009  0.1910  0.9035
10615SOL     OW33285   6.067   7.892   3.032  0.4837  0.2889 -0.3566
10615SOL    HW133286   6.091   7.930   2.948  1.5589  0.8566  0.1960
10615SOL    HW233287   5.983   7.850   3.015  1.2682 -0.6947 -2.0265
10616SOL     OW33288   1.004   6.085   4.178  0.0889  0.2636  0.3991
10616SOL    HW133289   0.973   6.014   4.123  1.1083 -0.8336  1.1885
10616SOL    HW233290   1.080   6.120   4.132 -0.7240  1.2545 -0.2595
10617SOL     OW33291   3.397   3.238   4.994  0.1527  0.4505 -0.1743
10617SOL    HW133292   3.483   3.200   4.975  0.7125  0.9586  1.2238
10617SOL    HW233293   3.339   3.201   4.927  1.5998  0.6880 -1.5946
10618SOL     OW33294   0.502   7.262   0.231  0.4473  0.1566  0.4454
10618SOL    HW133295   0.424   7.317   0.227  0.2027 -0.2170 -0.0977
10618SOL    HW233296   0.469   7.173   0.228  0.9098 -0.0027 -0.1424
10619SOL     OW33297   5.873   7.201  10.663  0.5202  0.2343  0.0514
10619SOL    HW133298   5.841   7.249  10.587 -3.0991 -3.0145 -0.8121
10619SOL    HW233299   5.815   7.226  10.734 -1.6879 -2.6892 -0.4977
10620SOL     OW33300   0.814   6.233   7.933  0.3706 -0.2571  0.6658
10620SOL    HW133301   0.765   6.223   7.851  0.3881  0.5314  0.5528
10620SOL    HW233302   0.751   6.208   8.001  0.0801 -0.0823  0.4661
10621SOL     OW33303   7.355   5.718   7.682  0.4209 -0.1577  0.2088
10621SOL    HW133304   7.381   5.697   7.772  2.8126 -1.3410 -0.6738
10621SOL    HW233305   7.409   5.793   7.658 -1.2921  1.1420  0.1815
10622SOL     OW33306   3.411   1.744  11.853 -0.6586 -0.2624  0.8465
10622SOL    HW133307   3.384   1.710  11.938 -1.0027  0.9055  1.2208
10622SOL    HW233308   3.454   1.827  11.873  0.5706 -0.6532 -0.0042
10623SOL     OW33309   2.588   4.907   3.292  0.4894 -0.0567  0.7362
10623SOL    HW133310   2.544   4.866   3.367  0.8588 -0.1112  0.9211
10623SOL    HW233311   2.537   4.987   3.275  0.0328 -0.3609  0.6522
10624SOL     OW33312   4.137   4.161  11.672  0.0874 -0.2720 -0.0100
10624SOL    HW133313   4.173   4.090  11.620 -1.1664 -2.3415  1.7479
10624SOL    HW233314   4.199   4.172  11.744  1.1940  1.7315 -1.1923
10625SOL     OW33315   4.426   6.203   7.464 -0.2457  0.3535  0.2030
10625SOL    HW133316   4.347   6.252   7.486  0.0121  1.2327 -0.7343
10625SOL    HW233317   4.492   6.270   7.445  0.5998 -0.3617  0.5267
10626SOL     OW33318   6.546   2.225   3.362 -0.2736  0.0552  0.7178
10626SOL    HW133319   6.633   2.188   3.377  1.5323  2.6524 -2.1154
10626SOL    HW233320   6.521   2.263   3.446  1.8104  0.1421  1.3589
10627SOL     OW33321   3.208   6.588   9.561 -0.4316 -0.0251 -0.2169
10627SOL    HW133322   3.152   6.513   9.542 -0.8062 -0.2583  1.6550
10627SOL    HW233323   3.276   6.553   9.619  1.6764  0.2638 -2.3500
10628SOL     OW33324   6.084   1.949   2.585 -0.4984  0.2091 -0.0678
10628SOL    HW133325   6.179   1.961   2.582 -0.3273 -0.9951  0.2019
10628SOL    HW233326   6.070   1.856   2.568 -1.4770 -0.1747  2.3681
10629SOL     OW33327   1.870   0.665   4.758 -0.5798 -0.2397 -0.5376
10629SOL    HW133328   1.832   0.579   4.773 -1.5196  0.2232 -0.1893
10629SOL    HW233329   1.883   0.701   4.846  2.3241 -1.0513 -0.5388
10630SOL     OW33330   5.041   4.863   0.077 -0.1446  0.0641 -0.0075
10630SOL    HW133331   4.984   4.798   0.035 -0.7850 -0.6907  1.9240
10630SOL    HW233332   5.113   4.812   0.113  0.1217  0.6173  0.2495
10631SOL     OW33333   5.311   6.841   9.765  0.6582  0.9759 -0.1028
10631SOL    HW133334   5.348   6.753   9.772 -0.6689  0.4558  1.0083
10631SOL    HW233335   5.336   6.872   9.678 -0.1431 -1.1228 -1.1432
10632SOL     OW33336   6.924   7.106  11.877 -0.0590 -0.0570  0.3478
10632SOL    HW133337   7.010   7.065  11.886  0.6521  1.4237  0.5927
10632SOL    HW233338   6.924   7.176  11.943 -2.2047 -1.2386  1.7198
10633SOL     OW33339   1.367   1.478   5.174  0.7453  0.5175  0.2315
10633SOL    HW133340   1.379   1.390   5.211  1.6704  0.2230 -0.7027
10633SOL    HW233341   1.310   1.523   5.237 -1.5572 -1.4175 -0.3217
10634SOL     OW33342   3.237   5.025   3.586  0.0841  0.2371  0.0407
10634SOL    HW133343   3.210   5.013   3.495 -0.3014  0.7732  0.0784
10634SOL    HW233344   3.330   5.003   3.587 -0.0914 -0.5760 -0.3160
10635SOL     OW33345   1.621   1.806   6.001 -0.0197  0.2694 -0.0347
10635SOL    HW133346   1.584   1.718   5.994 -0.8745  0.1988  3.5320
10635SOL    HW233347   1.546   1.864   5.988 -0.0779  0.3424  0.5904
10636SOL     OW33348   5.991   4.609   4.972 -0.1298 -0.2434  0.2307
10636SOL    HW133349   5.989   4.662   5.052 -1.2176  0.9749 -0.5602
10636SOL    HW233350   6.077   4.625   4.934  0.6629 -1.3505  1.4490
10637SOL     OW33351   5.226   4.043   1.869 -0.7032  0.4698 -0.0715
10637SOL    HW133352   5.307   4.089   1.890  0.1677 -0.5309 -1.1042
10637SOL    HW233353   5.254   3.956   1.841 -2.1126  0.2028 -0.7660
10638SOL     OW33354   6.571   5.544   9.791  0.0712  0.0581  0.1764
10638SOL    HW133355   6.533   5.620   9.748  0.2785 -0.3762 -0.8065
10638SOL    HW233356   6.499   5.481   9.795  0.0522  0.0980  0.4701
10639SOL     OW33357   3.958   5.913  11.865  0.2753  0.8521  0.2018
10639SOL    HW133358   3.924   5.830  11.900  1.4869 -0.1061 -0.7872
10639SOL    HW233359   4.021   5.942  11.930 -0.0281  0.9118  0.4710
10640SOL     OW33360   7.179   6.218  11.287 -0.0438  0.3817 -0.5572
10640SOL    HW133361   7.144   6.236  11.199  0.9124 -0.1754 -1.0764
10640SOL    HW233362   7.119   6.262  11.346 -0.8461  0.5766 -1.4832
10641SOL     OW33363   1.369   5.149   6.465 -0.2144 -0.5585  0.2194
10641SOL    HW133364   1.450   5.105   6.441 -1.1426 -2.1398 -0.1999
10641SOL    HW233365   1.358   5.219   6.400  0.7082 -0.4383  0.1858
10642SOL     OW33366   1.764   4.604   6.736 -0.3129  0.5178 -0.0877
10642SOL    HW133367   1.693   4.664   6.758 -0.8918 -0.2586  0.2085
10642SOL    HW233368   1.728   4.517   6.752  0.0993  0.0202 -1.6709
10643SOL     OW33369   5.831   3.026  11.102 -0.1327 -0.1062 -0.1523
10643SOL    HW133370   5.851   2.933  11.090 -1.1447 -0.4683  0.7818
10643SOL    HW233371   5.881   3.070  11.033 -0.6282 -1.4497 -1.4414
10644SOL     OW33372   7.724   7.259   5.932 -0.6566  0.1456 -0.1367
10644SOL    HW133373   7.725   7.189   5.997 -1.0471  0.6728  0.4482
10644SOL    HW233374   7.652   7.316   5.959 -1.2332  0.0446 -1.4025
10645SOL     OW33375   1.108   6.506  12.303  0.3929 -0.4128  0.3402
10645SOL    HW133376   1.086   6.596  12.278 -1.4801 -1.1676 -0.9015
10645SOL    HW233377   1.054   6.451  12.247  1.6447 -2.3477  0.9351
10646SOL     OW33378   6.493   0.224   4.534 -0.1822 -0.0931 -0.0785
10646SOL    HW133379   6.475   0.283   4.461  0.4387  0.1006 -0.0798
10646SOL    HW233380   6.569   0.173   4.506  1.5403  1.5563  1.3018
10647SOL     OW33381   3.925   0.480   2.714  0.4422 -0.3590  0.0780
10647SOL    HW133382   4.003   0.535   2.724 -0.2295  0.5859  0.2682
10647SOL    HW233383   3.941   0.406   2.772  1.6559 -0.7294 -0.6808
10648SOL     OW33384   6.792   7.141  11.640  0.2511  0.3419  0.1531
10648SOL    HW133385   6.844   7.209  11.597 -1.2966  1.7997  0.5124
10648SOL    HW233386   6.834   7.129  11.725  1.4445 -0.2887 -0.5007
10649SOL     OW33387   6.716   4.892   5.234  0.4295  0.3560  0.1352
10649SOL    HW133388   6.740   4.800   5.243 -1.0429  0.1370  2.5952
10649SOL    HW233389   6.634   4.891   5.183  0.4149  0.3219  0.1599
10650SOL     OW33390   3.570   6.354   6.774  0.0189 -0.4393  0.3621
10650SOL    HW133391   3.626   6.321   6.704  1.2926  1.3809  0.4380
10650SOL    HW233392   3.510   6.414   6.730 -0.7120 -1.0248  0.5390
10651SOL     OW33393   4.063   1.890   8.821 -0.1596 -1.0128 -0.0751
10651SOL    HW133394   4.073   1.915   8.913  1.1716  0.2334 -0.5224
10651SOL    HW233395   3.974   1.917   8.798 -0.0569 -0.1202  0.5127
10652SOL     OW33396   1.637   6.748   9.238  0.2147 -0.1333  0.0247
10652SOL    HW133397   1.603   6.745   9.327  1.0850  0.6248  0.4032
10652SOL    HW233398   1.567   6.788   9.186  0.2923  0.9085  0.6861
10653SOL     OW33399   5.736   0.873  11.442 -0.5297 -0.4277  0.1617
10653SOL    HW133400   5.640   0.867  11.447 -0.5014 -2.3946 -0.6614
10653SOL    HW233401   5.753   0.933  11.370 -1.1589 -0.8095 -0.3114
10654SOL     OW33402   4.102   1.774   2.622 -0.1250  0.4487  0.2423
10654SOL    HW133403   4.058   1.718   2.557 -1.3103  1.0985  0.4598
10654SOL    HW233404   4.042   1.775   2.697 -1.2795  3.7660 -0.5539
10655SOL     OW33405   7.696   7.447   4.199  0.2916  0.6914  0.5123
10655SOL    HW133406   7.609   7.430   4.237 -0.1620 -0.0789 -0.7914
10655SOL    HW233407   7.698   7.542   4.186 -0.4684  0.6939  0.3355
10656SOL     OW33408   7.555   5.911   7.064  0.4671  0.1069 -0.3338
10656SOL    HW133409   7.580   5.862   6.985  0.5000 -2.3143  1.0799
10656SOL    HW233410   7.460   5.913   7.061  0.4663 -0.0139 -0.4252
10657SOL     OW33411   6.431   6.014  10.845 -0.1199 -0.2460  0.2322
10657SOL    HW133412   6.391   5.947  10.901  0.4822 -0.5853  0.2628
10657SOL    HW233413   6.500   6.052  10.899  0.5534 -0.6667 -0.3198
10658SOL     OW33414   2.629   6.348   7.890 -0.5580  0.3671 -0.1176
10658SOL    HW133415   2.715   6.333   7.929 -1.3422 -1.6228  0.9579
10658SOL    HW233416   2.649   6.388   7.804  1.3570  0.8451  0.4950
10659SOL     OW33417   0.184   2.758   7.566 -0.2559  0.0075  0.0609
10659SOL    HW133418   0.219   2.847   7.577 -1.5949  0.2907  2.8034
10659SOL    HW233419   0.095   2.763   7.599  0.3621 -2.8477  2.5525
10660SOL     OW33420   6.181   2.079   4.401  0.0177 -0.5391  0.0144
10660SOL    HW133421   6.095   2.043   4.421  0.0338 -0.9046 -0.5568
10660SOL    HW233422   6.233   2.003   4.374  0.2729 -0.1994 -0.4632
10661SOL     OW33423   2.154   4.814   0.528 -0.0552  0.3182 -0.0936
10661SOL    HW133424   2.063   4.787   0.536  0.0649  0.1744  0.9847
10661SOL    HW233425   2.187   4.814   0.618  0.9294  0.6433 -0.4377
10662SOL     OW33426   3.999   7.055   6.237 -0.3725  0.2858  0.5299
10662SOL    HW133427   3.992   6.960   6.244  0.8374  0.2706  2.0703
10662SOL    HW233428   3.956   7.088   6.316 -1.4760  1.0807 -0.3744
10663SOL     OW33429   0.897   0.122   1.120 -0.2093 -0.0993  0.5260
10663SOL    HW133430   0.886   0.137   1.026  1.1238 -0.9876  0.1950
10663SOL    HW233431   0.813   0.087   1.149 -0.8141  0.6847 -0.2114
10664SOL     OW33432   6.989   6.067   2.111 -0.0280  0.0563  0.2938
10664SOL    HW133433   7.049   6.071   2.036 -0.9899 -0.2087 -0.5013
10664SOL    HW233434   7.020   6.135   2.170  1.2288 -0.2541  0.0250
10665SOL     OW33435   0.156   5.539  10.587 -0.0225  0.3446 -0.0126
10665SOL    HW133436   0.110   5.573  10.664 -0.3421  2.9589 -1.2679
10665SOL    HW233437   0.089   5.487  10.541  0.0415 -0.8492  1.1678
10666SOL     OW33438   2.946   7.687  10.050 -0.0592  0.1911  0.1197
10666SOL    HW133439   2.972   7.622   9.985  0.3010 -0.3814  0.8191
10666SOL    HW233440   2.865   7.651  10.088 -1.8537  1.8430 -1.8799
10667SOL     OW33441   2.097   2.423  10.230 -0.4965 -0.2351  0.0941
10667SOL    HW133442   2.019   2.423  10.285  1.3027 -1.9380  2.8709
10667SOL    HW233443   2.148   2.498  10.260 -0.4350  0.0852 -0.7758
10668SOL     OW33444   3.086   2.381   7.619  0.3754  0.0844  0.2426
10668SOL    HW133445   3.055   2.295   7.592  0.9356  0.1603 -0.6451
10668SOL    HW233446   3.023   2.408   7.686 -0.5085 -0.4867 -0.3379
10669SOL     OW33447   2.570   7.252   4.643 -0.5051  0.0107  0.4394
10669SOL    HW133448   2.583   7.199   4.721 -2.6925 -0.4744  0.5523
10669SOL    HW233449   2.506   7.318   4.669  2.2304  2.9533  0.3433
10670SOL     OW33450   2.001   2.320   8.463 -0.0654 -0.1593 -0.1737
10670SOL    HW133451   2.001   2.271   8.545 -0.1832 -0.5082 -0.3803
10670SOL    HW233452   1.955   2.402   8.483 -1.0949 -0.7216 -0.1787
10671SOL     OW33453   5.737   5.792  10.191 -0.2512  0.8272 -0.3876
10671SOL    HW133454   5.697   5.723  10.244  0.4527  0.1143 -0.7457
10671SOL    HW233455   5.829   5.765  10.183 -0.4368  0.5893 -2.4281
10672SOL     OW33456   2.744   6.393  11.896  0.0216  0.1750  0.2403
10672SOL    HW133457   2.744   6.430  11.984 -1.3257  1.1887 -0.1512
10672SOL    HW233458   2.837   6.378  11.876  0.4127  0.8856  1.4247
10673SOL     OW33459   3.617   1.947   5.026  0.2859  0.2918  0.0125
10673SOL    HW133460   3.558   1.886   5.068 -1.2113  1.4172 -0.3621
10673SOL    HW233461   3.682   1.968   5.093 -0.3367 -0.1884  0.7807
10674SOL     OW33462   5.898   4.550   7.680 -0.2355  0.5081  0.0533
10674SOL    HW133463   5.895   4.460   7.714  0.3405  0.7131  0.6697
10674SOL    HW233464   5.807   4.580   7.683 -0.3066  0.2590  0.7332
10675SOL     OW33465   5.199   2.104   8.697 -0.5418  0.1574  0.1338
10675SOL    HW133466   5.277   2.135   8.743  0.1800 -1.4546  0.0688
10675SOL    HW233467   5.143   2.069   8.766  0.0573 -1.2615 -0.0797
10676SOL     OW33468   1.620   1.962   9.008  0.2813  0.1155 -0.0695
10676SOL    HW133469   1.666   1.878   9.007  1.4049  0.6840  1.0117
10676SOL    HW233470   1.687   2.026   9.030 -0.7896  1.1553  0.3054
10677SOL     OW33471   0.655   4.424   0.265 -0.3434  0.8668  0.0456
10677SOL    HW133472   0.689   4.431   0.176 -0.9396  1.1999 -0.1603
10677SOL    HW233473   0.708   4.485   0.316  0.7514 -0.1419  0.1613
10678SOL     OW33474   4.020   6.044   0.603  0.5950 -0.3317 -0.2808
10678SOL    HW133475   3.966   5.972   0.635  2.8616 -1.7095  0.7590
10678SOL    HW233476   4.032   6.025   0.510  0.4346 -0.8071 -0.2073
10679SOL     OW33477   5.283   0.812   3.692  0.0294  0.3120 -0.3249
10679SOL    HW133478   5.372   0.842   3.674  0.1186 -0.4333 -1.2134
10679SOL    HW233479   5.255   0.863   3.768  1.0122  0.9428 -0.3725
10680SOL     OW33480   2.626   3.134   3.674  0.1608  0.2223  0.0938
10680SOL    HW133481   2.607   3.040   3.670  1.7751 -0.0888 -0.6459
10680SOL    HW233482   2.561   3.174   3.616 -2.1183 -0.1038  2.2058
10681SOL     OW33483   6.018   2.327   6.294  0.2652 -1.0276 -0.5130
10681SOL    HW133484   6.053   2.364   6.212 -1.2920 -0.5158 -0.9864
10681SOL    HW233485   6.063   2.376   6.363  0.8107 -0.7045 -1.0822
10682SOL     OW33486   3.943   5.394  11.182  0.4486 -0.2063  0.0787
10682SOL    HW133487   3.992   5.432  11.255  1.6451 -1.7714  0.1296
10682SOL    HW233488   3.975   5.305  11.175 -0.0119 -0.2523 -2.0625
10683SOL     OW33489   6.186   4.605   7.673 -0.4467  0.0400  0.0803
10683SOL    HW133490   6.180   4.566   7.586 -0.5030  1.3476 -0.5168
10683SOL    HW233491   6.096   4.605   7.706 -0.5793  0.4639 -0.2776
10684SOL     OW33492   7.774   7.255   3.613 -0.1757  0.9086 -0.1664
10684SOL    HW133493   7.862   7.229   3.586 -0.4961  0.0357 -0.3986
10684SOL    HW233494   7.772   7.238   3.707 -0.3459  0.1978 -0.2979
10685SOL     OW33495   1.137   7.487   3.274 -0.9267  0.6812  0.0947
10685SOL    HW133496   1.200   7.491   3.202  0.1216  0.1408  0.9407
10685SOL    HW233497   1.094   7.572   3.273 -1.6175  0.3477 -1.7443
10686SOL     OW33498   1.501   1.745   3.675  0.0338 -0.0724  0.1004
10686SOL    HW133499   1.557   1.678   3.636 -1.3150  0.1034 -2.3540
10686SOL    HW233500   1.471   1.706   3.757  1.9241 -1.0530  0.3843
10687SOL     OW33501   7.491   7.327   4.879 -0.1472  0.4833 -0.3146
10687SOL    HW133502   7.512   7.309   4.787 -1.2806 -0.5515 -0.4051
10687SOL    HW233503   7.576   7.347   4.920  1.0554 -3.0256 -0.7454
10688SOL     OW33504   1.780   7.214   2.818 -0.3064 -0.1620  0.5349
10688SOL    HW133505   1.781   7.309   2.807  0.4686 -0.1918  0.2736
10688SOL    HW233506   1.870   7.191   2.838 -0.3844 -0.8972  0.0900
10689SOL     OW33507   2.841   5.023   4.632 -0.2492  0.4122 -0.2513
10689SOL    HW133508   2.749   5.029   4.657 -0.1701 -1.0887  0.4706
10689SOL    HW233509   2.840   4.986   4.544 -0.3627  1.9948 -0.9650
10690SOL     OW33510   6.920   3.543  11.715  0.1571 -0.0010 -0.8307
10690SOL    HW133511   6.855   3.524  11.647  0.2180 -0.2043 -0.8339
10690SOL    HW233512   6.950   3.456  11.743 -0.5589  0.0465  0.1287
10691SOL     OW33513   0.517   3.598   7.556  0.0066 -0.2383  0.4916
10691SOL    HW133514   0.570   3.677   7.552  0.6434 -0.7093 -0.9233
10691SOL    HW233515   0.564   3.534   7.504 -0.8016 -1.3849  1.1074
10692SOL     OW33516   2.467   6.320   2.309 -0.7021 -0.7201  0.1874
10692SOL    HW133517   2.428   6.261   2.374 -1.9720 -0.4306 -0.2852
10692SOL    HW233518   2.452   6.408   2.345 -1.1204 -0.5762 -0.3322
10693SOL     OW33519   1.378   2.190   0.912 -0.4386  0.7834 -0.1404
10693SOL    HW133520   1.450   2.166   0.970 -0.2526  0.3097 -0.5606
10693SOL    HW233521   1.302   2.144   0.947 -0.0735 -0.5268 -0.9777
10694SOL     OW33522   5.812   0.388   1.459 -0.6990 -0.8183 -0.2192
10694SOL    HW133523   5.871   0.461   1.438 -1.4418 -0.1966 -0.2145
10694SOL    HW233524   5.725   0.421   1.436 -1.4054 -0.6056  2.4068
10695SOL     OW33525   0.418   5.751   4.659  0.4196  0.6228 -0.2159
10695SOL    HW133526   0.402   5.793   4.574 -0.4475  1.9250  0.5491
10695SOL    HW233527   0.419   5.824   4.722  1.9257 -0.2241  0.7924
10696SOL     OW33528   4.933   7.225   9.771  0.2001  0.5709 -0.2068
10696SOL    HW133529   4.986   7.219   9.692 -1.4503  0.1232 -1.3458
10696SOL    HW233530   4.892   7.312   9.767 -1.0405 -0.0065 -0.6620
10697SOL     OW33531   0.627   0.292   7.439  0.1830 -0.5029 -0.1728
10697SOL    HW133532   0.655   0.219   7.494  0.5830 -1.3024 -1.3901
10697SOL    HW233533   0.700   0.354   7.442  0.3594 -0.7124 -0.0779
10698SOL     OW33534   2.592   7.386   2.997 -0.3247 -0.4660  0.1387
10698SOL    HW133535   2.574   7.343   3.080 -0.5819 -0.1016  0.2755
10698SOL    HW233536   2.507   7.417   2.967 -0.2687 -0.7986 -0.3774
10699SOL     OW33537   2.012   2.473   0.170  0.5628  0.1024 -0.4459
10699SOL    HW133538   2.025   2.385   0.205  2.0526  0.0719 -0.9877
10699SOL    HW233539   2.091   2.521   0.197  0.1909  1.0087 -0.9332
10700SOL     OW33540   4.396   4.729   9.544  0.5038 -0.6428 -0.0760
10700SOL    HW133541   4.431   4.647   9.579 -0.0029 -1.5780 -1.6292
10700SOL    HW233542   4.450   4.746   9.466  1.3786  1.1638  0.8737
10701SOL     OW33543   0.133   7.604   5.844 -0.7134  0.4203 -0.1851
10701SOL    HW133544   0.121   7.699   5.831 -0.4825  0.5940  0.8039
10701SOL    HW233545   0.089   7.586   5.927 -2.0457 -0.6228 -1.0899
10702SOL     OW33546   4.658   4.087  10.807  0.0839 -0.3145  0.3158
10702SOL    HW133547   4.717   4.160  10.790 -0.4471 -0.2270 -1.3660
10702SOL    HW233548   4.571   4.123  10.794 -0.2723 -0.8242  1.2149
10703SOL     OW33549   3.987   3.776   6.330  0.0677  0.0331  0.0561
10703SOL    HW133550   3.966   3.864   6.297  1.2441  0.1739 -0.3802
10703SOL    HW233551   4.043   3.738   6.262 -0.4974 -1.1100  0.1945
10704SOL     OW33552   5.438   0.419   4.063  0.1742 -0.6693  0.3683
10704SOL    HW133553   5.426   0.333   4.104 -0.8547 -0.7255 -0.0019
10704SOL    HW233554   5.482   0.471   4.129 -2.3126 -0.4563  2.0167
10705SOL     OW33555   0.038   6.213  10.322  0.1684  0.2508 -0.4922
10705SOL    HW133556  -0.038   6.270  10.319  0.1514  0.2002 -1.5332
10705SOL    HW233557   0.074   6.224  10.410 -0.1940  1.3847 -0.4757
10706SOL     OW33558   6.912   3.818   8.876  0.1445  0.1429  0.0753
10706SOL    HW133559   6.959   3.736   8.886 -0.0167 -0.2979 -2.2114
10706SOL    HW233560   6.976   3.886   8.898  0.7803 -0.5420  0.3741
10707SOL     OW33561   2.554   0.187   5.133  0.4449  0.6240  0.1196
10707SOL    HW133562   2.545   0.280   5.110  2.8279  1.2750  1.4851
10707SOL    HW233563   2.632   0.158   5.084  2.0742  0.4798  2.5967
10708SOL     OW33564   1.041   3.133   8.556  0.0732  0.0703  0.7674
10708SOL    HW133565   1.088   3.080   8.620 -0.6288 -0.1583  1.1041
10708SOL    HW233566   0.957   3.152   8.598 -0.0076  0.7519  0.3119
10709SOL     OW33567   0.056   0.696   3.951  0.3554 -0.0300  0.1245
10709SOL    HW133568   0.126   0.640   3.918  1.4149  1.5568 -0.4577
10709SOL    HW233569  -0.016   0.683   3.889  1.5659  1.2824 -1.6552
10710SOL     OW33570   2.694   4.259   8.963 -0.2258  0.3189 -0.1230
10710SOL    HW133571   2.650   4.176   8.984 -0.9188  0.4023 -1.1576
10710SOL    HW233572   2.636   4.301   8.900  2.2122 -0.4651 -3.1521
10711SOL     OW33573   7.246   2.615  10.894  0.3377  0.1916  0.2265
10711SOL    HW133574   7.190   2.692  10.889 -0.3315 -0.3716 -1.8908
10711SOL    HW233575   7.198   2.554  10.949  0.2147  0.7458  0.7441
10712SOL     OW33576   1.617   5.262   6.758 -0.2853  0.6033 -0.2151
10712SOL    HW133577   1.614   5.201   6.832  0.0020  0.2112 -0.5202
10712SOL    HW233578   1.658   5.341   6.794  2.8292 -0.6494 -0.6439
10713SOL     OW33579   1.009   2.260  10.066 -0.3036  0.2157 -0.8051
10713SOL    HW133580   0.948   2.193  10.035 -0.1257 -0.5095  0.3757
10713SOL    HW233581   1.032   2.233  10.155  0.7380  1.1803 -0.7591
10714SOL     OW33582   6.485   3.839   7.768 -0.5023  0.1624  0.0396
10714SOL    HW133583   6.499   3.827   7.674  0.4904  0.8712  0.0812
10714SOL    HW233584   6.390   3.832   7.780 -0.5772 -0.6161 -0.9088
10715SOL     OW33585   0.493   4.325  10.596 -0.4637  0.6293 -0.0413
10715SOL    HW133586   0.462   4.319  10.506 -0.4760 -1.8484  0.0641
10715SOL    HW233587   0.559   4.395  10.594  0.4106 -0.1665 -2.2573
10716SOL     OW33588   6.293   4.723   0.054  0.1859 -0.2267  0.2198
10716SOL    HW133589   6.341   4.740   0.135  0.5365 -1.4378  0.2974
10716SOL    HW233590   6.265   4.631   0.062  1.5493 -0.8717 -1.6513
10717SOL     OW33591   5.037   2.346  10.022 -0.0701 -0.2322 -0.1041
10717SOL    HW133592   4.982   2.283   9.975 -0.0152 -0.3360 -0.0293
10717SOL    HW233593   5.111   2.294  10.055 -0.3946 -0.2783  0.5829
10718SOL     OW33594   5.420   6.294   2.733  0.3643  0.2632 -0.2654
10718SOL    HW133595   5.486   6.311   2.666 -0.4256  0.1572 -1.0931
10718SOL    HW233596   5.340   6.275   2.683 -0.1098 -0.3542  0.7040
10719SOL     OW33597   2.163   5.285   8.382 -0.3389 -0.3350 -0.1889
10719SOL    HW133598   2.128   5.282   8.293  0.8904  0.1225 -0.7114
10719SOL    HW233599   2.094   5.326   8.434 -0.0846  1.8646 -1.4635
10720SOL     OW33600   2.696   4.731  10.301 -0.3487 -0.2058 -0.0420
10720SOL    HW133601   2.771   4.761  10.353 -0.9368 -0.8294  1.1904
10720SOL    HW233602   2.645   4.810  10.285 -0.4926 -0.1018  0.8792
10721SOL     OW33603   0.932   2.756   3.852 -0.5932 -0.4364  0.4521
10721SOL    HW133604   0.975   2.672   3.868  0.0870 -0.1834  0.0069
10721SOL    HW233605   0.936   2.767   3.757 -0.7478  0.0600  0.4997
10722SOL     OW33606   4.033   1.273   3.317  0.1476 -0.3253  0.0832
10722SOL    HW133607   3.963   1.209   3.307  0.3599 -0.2715 -2.3434
10722SOL    HW233608   4.111   1.221   3.333 -0.0490 -0.5097  0.4694
10723SOL     OW33609   1.848   0.341   4.010  0.1645 -0.0667 -0.6671
10723SOL    HW133610   1.912   0.287   4.057  0.3509  0.2406 -0.5613
10723SOL    HW233611   1.775   0.351   4.072 -0.1801 -0.7813 -0.9528
10724SOL     OW33612   0.907   4.390   3.172 -0.1628  0.2439 -0.2023
10724SOL    HW133613   0.882   4.433   3.254  0.0012 -0.1504  0.0632
10724SOL    HW233614   0.943   4.460   3.118 -0.2376  0.5031  0.0789
10725SOL     OW33615   4.187   4.563   3.257  0.1458 -0.3197  0.4458
10725SOL    HW133616   4.138   4.618   3.196  0.5085  0.9286  1.2357
10725SOL    HW233617   4.125   4.546   3.328  0.0413 -0.9308  0.2132
10726SOL     OW33618   5.435   2.009  12.182 -0.2030  0.3666  0.7783
10726SOL    HW133619   5.383   1.961  12.118 -2.1556  1.5433  1.3796
10726SOL    HW233620   5.492   2.065  12.130  0.9241 -1.3388  0.0933
10727SOL     OW33621   0.711   1.522   2.774 -0.3240  0.4686  0.0647
10727SOL    HW133622   0.641   1.552   2.717  0.4123  1.8638 -0.1453
10727SOL    HW233623   0.705   1.426   2.771 -0.8143  0.5163 -1.7154
10728SOL     OW33624   0.263   2.776   9.972 -0.4283  0.2894 -0.2798
10728SOL    HW133625   0.276   2.681   9.971 -0.2326  0.2758  1.0908
10728SOL    HW233626   0.351   2.813   9.963 -0.3442  0.3098  0.5447
10729SOL     OW33627   3.536   6.322   8.793  0.1065 -0.5476 -0.2068
10729SOL    HW133628   3.611   6.361   8.747  0.0703  0.3273  0.4379
10729SOL    HW233629   3.461   6.338   8.735  0.3894 -1.3567 -0.8184
10730SOL     OW33630   0.059   4.030   1.395  0.2207  0.0157  0.0866
10730SOL    HW133631   0.025   4.110   1.434 -0.4771 -0.0284 -0.4188
10730SOL    HW233632   0.070   4.051   1.303  2.1159  0.2048  0.3192
10731SOL     OW33633   0.680   3.503   9.226  0.1438  0.2663 -0.2177
10731SOL    HW133634   0.689   3.574   9.291  1.6497 -0.1037  0.0245
10731SOL    HW233635   0.641   3.431   9.275 -0.0462  0.4560 -0.0885
10732SOL     OW33636   4.717   7.718  11.925  0.4952  0.3567 -0.2287
10732SOL    HW133637   4.756   7.801  11.953 -0.1917  0.9433 -0.9776
10732SOL    HW233638   4.776   7.651  11.961  1.3817  1.1719 -0.1102
10733SOL     OW33639   0.606   1.976   4.173  0.4572  0.0472  0.0792
10733SOL    HW133640   0.660   1.907   4.211 -0.1933  0.1026  1.1396
10733SOL    HW233641   0.645   2.058   4.204  1.3138  0.1954 -1.2923
10734SOL     OW33642   0.036   6.157   3.651  0.2887 -0.1234 -0.9203
10734SOL    HW133643   0.057   6.250   3.641  0.3484  0.0436  0.4720
10734SOL    HW233644  -0.057   6.151   3.628 -0.1115  0.5758  0.3867
10735SOL     OW33645   6.842   0.448   2.609  0.0252  0.1911  1.0014
10735SOL    HW133646   6.900   0.506   2.659  0.1330  0.9840 -0.0005
10735SOL    HW233647   6.800   0.506   2.545  0.1704 -0.8443 -0.0689
10736SOL     OW33648   0.277   5.607  11.498  0.0994 -0.4081  0.4245
10736SOL    HW133649   0.285   5.634  11.407 -0.3130 -0.5083  0.3539
10736SOL    HW233650   0.183   5.592  11.510  0.1592 -0.4594  0.8463
10737SOL     OW33651   0.380   7.808   1.872 -0.7715  0.1208 -0.0081
10737SOL    HW133652   0.294   7.847   1.851 -1.2734 -1.9426 -2.2288
10737SOL    HW233653   0.362   7.746   1.942 -0.9565  0.2041  0.0201
10738SOL     OW33654   4.606   7.716   8.169 -0.1738 -0.1963  0.1800
10738SOL    HW133655   4.535   7.677   8.219 -1.5856  0.7932 -0.9859
10738SOL    HW233656   4.570   7.798   8.135  0.6780 -0.8623 -2.5393
10739SOL     OW33657   6.652   7.569  11.961 -0.2641  0.1612  0.3587
10739SOL    HW133658   6.700   7.590  11.882  2.9601 -0.8597  1.8974
10739SOL    HW233659   6.719   7.547  12.025 -2.6932  0.9321  3.4200
10740SOL     OW33660   4.097   4.109   1.214  0.5053  0.3021  0.7532
10740SOL    HW133661   4.019   4.062   1.186  1.7211 -1.6700  0.4448
10740SOL    HW233662   4.090   4.195   1.173 -0.8186 -0.3300 -0.4138
10741SOL     OW33663   4.041   6.366   1.737 -0.2660 -0.4014 -0.3428
10741SOL    HW133664   3.962   6.331   1.778 -0.7008  0.9184  0.0288
10741SOL    HW233665   4.011   6.402   1.653  0.0553 -0.4532 -0.4825
10742SOL     OW33666   1.430   3.686   1.683  0.0137 -0.8929  0.2654
10742SOL    HW133667   1.467   3.621   1.743  0.2852 -0.3739  0.6687
10742SOL    HW233668   1.480   3.675   1.602  1.1193 -0.1621  0.8174
10743SOL     OW33669   3.091   6.595   7.248 -0.7540 -0.6633  0.1300
10743SOL    HW133670   3.121   6.516   7.203  0.8221 -0.1540  0.2395
10743SOL    HW233671   3.031   6.636   7.186  1.4622  0.0895 -1.6735
10744SOL     OW33672   1.344   6.710   8.109  0.2622  0.1686  0.1334
10744SOL    HW133673   1.379   6.770   8.044 -1.2673  0.0911 -0.7972
10744SOL    HW233674   1.421   6.678   8.156  1.1713  2.3140  0.2149
10745SOL     OW33675   3.767   2.185   0.204  0.6818 -0.1838 -0.0149
10745SOL    HW133676   3.858   2.198   0.231  0.5928  2.6039 -0.7557
10745SOL    HW233677   3.765   2.096   0.168  3.1983 -0.1558 -0.3720
10746SOL     OW33678   1.745   4.328   9.535 -0.3065 -0.0330 -0.3097
10746SOL    HW133679   1.683   4.401   9.531  0.4050  0.5940 -0.1089
10746SOL    HW233680   1.698   4.254   9.496 -0.7189  0.7714 -1.3981
10747SOL     OW33681   5.501   4.240   0.408  0.1910 -0.2218  0.9014
10747SOL    HW133682   5.438   4.230   0.337  0.2402  2.7157  0.3156
10747SOL    HW233683   5.446   4.244   0.487 -0.2001  0.3793  0.6045
10748SOL     OW33684   1.738   7.312   0.608  0.0913  0.1460 -0.4479
10748SOL    HW133685   1.730   7.400   0.573 -0.6555  0.4993  0.5706
10748SOL    HW233686   1.790   7.322   0.688 -0.9905 -0.1328  0.3236
10749SOL     OW33687   5.288   2.739   6.278 -0.2989 -0.2350  0.7210
10749SOL    HW133688   5.343   2.683   6.333 -0.4429  1.1803  2.3941
10749SOL    HW233689   5.310   2.828   6.306 -1.8144  0.4420 -0.1634
10750SOL     OW33690   2.459   0.972   5.570 -0.1609 -0.0845 -0.3187
10750SOL    HW133691   2.431   0.903   5.510 -0.7529  0.4056 -0.6192
10750SOL    HW233692   2.525   0.930   5.626 -2.3164 -1.6590  1.2116
10751SOL     OW33693   7.137   2.508  12.006 -0.2123  0.3162 -0.3851
10751SOL    HW133694   7.162   2.508  12.099  0.2763 -2.3362 -0.4586
10751SOL    HW233695   7.041   2.502  12.008 -0.0966 -3.6380  0.1033
10752SOL     OW33696   4.112   4.609   7.783  0.1809  0.3624 -0.5041
10752SOL    HW133697   4.064   4.528   7.770  0.8436  0.0999 -1.4311
10752SOL    HW233698   4.175   4.589   7.853  0.7083 -0.0967 -1.1012
10753SOL     OW33699   0.357   5.016   1.095 -0.1748 -0.0940  0.7034
10753SOL    HW133700   0.378   5.056   1.011  0.4561  2.9010  2.1621
10753SOL    HW233701   0.443   4.997   1.134 -0.3623  1.3043  1.8567
10754SOL     OW33702   2.666   4.441   8.629 -0.0718 -0.2767  0.4353
10754SOL    HW133703   2.756   4.426   8.602  0.0149 -0.9415  1.0694
10754SOL    HW233704   2.649   4.532   8.605  0.4511 -0.4262 -0.5478
10755SOL     OW33705   2.869   0.648  11.591 -0.2181 -0.1017  0.2190
10755SOL    HW133706   2.862   0.643  11.686  1.8854  0.3874  0.4515
10755SOL    HW233707   2.941   0.710  11.575 -1.8173  1.4154 -1.7414
10756SOL     OW33708   1.694   5.436   5.123 -0.2172 -0.1128 -0.2113
10756SOL    HW133709   1.650   5.426   5.038 -1.5924  0.0541  0.4658
10756SOL    HW233710   1.778   5.392   5.111 -0.8912 -1.1783 -1.2834
10757SOL     OW33711   2.993   4.863   5.573 -0.0528 -0.0515  0.6092
10757SOL    HW133712   3.074   4.837   5.619  0.4580 -0.5166 -0.5238
10757SOL    HW233713   3.006   4.955   5.552 -0.4883  0.2962  1.7781
10758SOL     OW33714   6.753   3.415   8.592  0.0455  0.3669  0.1596
10758SOL    HW133715   6.803   3.496   8.600  2.0136 -0.7252 -0.2701
10758SOL    HW233716   6.807   3.350   8.637 -1.7715 -0.6196  1.0069
10759SOL     OW33717   3.668   4.718   7.619  0.2020  0.1031  0.1194
10759SOL    HW133718   3.624   4.803   7.614 -1.1395 -0.5337  0.6498
10759SOL    HW233719   3.721   4.724   7.699 -0.8714  0.0269  0.8661
10760SOL     OW33720   7.903   4.799  12.354  0.0107  0.0877  0.6924
10760SOL    HW133721   7.990   4.788  12.393  0.5343 -0.0260 -0.4809
10760SOL    HW233722   7.876   4.887  12.380  0.6832  0.3079  0.6652
10761SOL     OW33723   0.509   3.543   9.852  0.1912 -0.9311  0.7949
10761SOL    HW133724   0.415   3.548   9.831 -0.1911 -1.7175  2.1321
10761SOL    HW233725   0.551   3.519   9.770 -0.4245  1.8892 -0.4569
10762SOL     OW33726   5.773   3.784   4.168 -0.0194  0.6265 -0.4402
10762SOL    HW133727   5.815   3.847   4.227  0.2013 -0.2582  0.3741
10762SOL    HW233728   5.844   3.755   4.111  0.1974  0.0745  0.1059
10763SOL     OW33729   3.011   1.713   9.016 -0.0251  0.1321  0.5891
10763SOL    HW133730   3.085   1.705   8.956  1.2371  2.1972  1.7172
10763SOL    HW233731   2.936   1.679   8.968  1.2966 -0.1234 -1.3762
10764SOL     OW33732   3.297   7.350  12.325 -0.7171 -0.1374  0.0767
10764SOL    HW133733   3.308   7.272  12.271  0.3968  1.1949 -1.7509
10764SOL    HW233734   3.386   7.382  12.339 -0.7672 -1.2683  4.1932
10765SOL     OW33735   1.249   0.689   9.820 -0.5474  0.7271  0.3327
10765SOL    HW133736   1.171   0.721   9.775 -0.4523  0.0999 -0.3077
10765SOL    HW233737   1.322   0.731   9.774 -0.3357 -1.4108 -1.4908
10766SOL     OW33738   4.010   3.577   5.666 -0.1664 -0.0628  0.0448
10766SOL    HW133739   3.936   3.614   5.618 -0.4124  1.4883  1.5519
10766SOL    HW233740   4.010   3.484   5.642 -1.2404  0.3345 -1.6661
10767SOL     OW33741   5.794   2.648   8.822 -0.1167 -0.5126  0.1674
10767SOL    HW133742   5.806   2.606   8.737  1.4673 -1.0559  0.6278
10767SOL    HW233743   5.872   2.701   8.835 -1.8839  2.4557 -0.2350
10768SOL     OW33744   4.397   7.554   3.287  0.0502 -0.2230 -0.2108
10768SOL    HW133745   4.349   7.634   3.265 -1.5943 -1.3816 -1.0474
10768SOL    HW233746   4.347   7.515   3.359  1.1338 -0.2757  0.5456
10769SOL     OW33747   3.808   0.418   1.973 -0.3447  0.4878 -0.2539
10769SOL    HW133748   3.855   0.435   2.055  0.4532  2.7527 -1.0889
10769SOL    HW233749   3.870   0.368   1.920 -1.3617 -2.1800  0.9375
10770SOL     OW33750   2.237   6.621  10.524  0.1522  0.3011 -0.2999
10770SOL    HW133751   2.314   6.567  10.508 -0.0028  0.4095 -1.5002
10770SOL    HW233752   2.271   6.711  10.528  0.4140  0.1770  1.7232
10771SOL     OW33753   1.939   0.301   4.591 -0.0905 -0.1498  0.4269
10771SOL    HW133754   1.910   0.384   4.553  0.8224 -0.5135 -1.2061
10771SOL    HW233755   2.006   0.270   4.530  0.3214 -1.5894  1.5571
10772SOL     OW33756   4.382   0.309   7.082 -0.8759 -0.7624 -0.2882
10772SOL    HW133757   4.323   0.251   7.131  0.5318  0.0161  2.5269
10772SOL    HW233758   4.452   0.251   7.051 -1.3639 -1.1326 -0.7209
10773SOL     OW33759   1.515   5.934   6.037 -0.3104  0.0211 -0.3955
10773SOL    HW133760   1.461   5.899   5.966 -0.4330  0.4736 -0.5245
10773SOL    HW233761   1.534   6.024   6.011 -2.4953  1.0686  1.3023
10774SOL     OW33762   7.722   0.146   5.269  0.5879 -0.6217 -0.2479
10774SOL    HW133763   7.722   0.052   5.252  0.5529 -0.3404 -1.9313
10774SOL    HW233764   7.762   0.185   5.191  0.9874  0.7377  0.6008
10775SOL     OW33765   6.019   2.018   5.565 -0.0074  0.0947 -0.1230
10775SOL    HW133766   5.979   2.078   5.628  0.6345 -0.7427  1.1252
10775SOL    HW233767   6.108   2.006   5.598  0.3904 -0.2474 -1.2940
10776SOL     OW33768   6.568   5.149   9.030 -0.0397  0.1502  0.4267
10776SOL    HW133769   6.531   5.084   8.970 -0.0133  0.6927 -0.1832
10776SOL    HW233770   6.514   5.227   9.019  1.2626  0.9777 -0.5170
10777SOL     OW33771   7.104   7.166   4.502  0.0354 -0.1152  0.3125
10777SOL    HW133772   7.162   7.230   4.462  0.3812 -0.5246  0.1517
10777SOL    HW233773   7.163   7.104   4.546 -0.2890 -0.3629  0.4036
10778SOL     OW33774   7.147   6.968   4.108  0.1430  0.0542  0.0981
10778SOL    HW133775   7.087   7.036   4.137 -0.4859 -0.7056  0.6302
10778SOL    HW233776   7.141   6.971   4.012  0.1349  0.7462  0.1152
10779SOL     OW33777   4.955   6.676   7.856 -0.0644  0.1010 -0.2866
10779SOL    HW133778   4.943   6.634   7.771 -0.7432  1.9937 -1.1789
10779SOL    HW233779   5.006   6.612   7.907 -0.0541 -1.2790 -1.9258
10780SOL     OW33780   1.197   4.404   8.754  0.0349 -0.0572 -0.2462
10780SOL    HW133781   1.205   4.403   8.849 -1.6794  1.4717 -0.0276
10780SOL    HW233782   1.125   4.344   8.735 -0.6575  0.7937 -0.4007
10781SOL     OW33783   2.721   1.223  12.023 -0.4087  0.6201  0.1933
10781SOL    HW133784   2.794   1.195  11.967 -0.7346 -1.7598  0.8340
10781SOL    HW233785   2.763   1.265  12.098  0.3078 -0.1158  0.2255
10782SOL     OW33786   4.624   4.815   5.648  0.1732  0.1263 -0.3820
10782SOL    HW133787   4.557   4.801   5.581 -0.0839 -2.6234  0.3528
10782SOL    HW233788   4.612   4.907   5.674 -1.5987  0.4382 -2.0605
10783SOL     OW33789   2.293   2.234  10.189 -0.1919 -0.2751  0.0808
10783SOL    HW133790   2.258   2.190  10.267 -0.6508 -1.8803 -0.9912
10783SOL    HW233791   2.229   2.303  10.171 -2.0199 -2.1243 -0.8726
10784SOL     OW33792   0.367   5.300   7.658 -0.2853  0.4092 -0.2684
10784SOL    HW133793   0.403   5.365   7.718  1.6922 -1.6364  0.9331
10784SOL    HW233794   0.437   5.236   7.647 -1.7515 -0.9940 -2.2267
10785SOL     OW33795   0.905   7.270   2.680 -0.2188 -0.4652 -0.4176
10785SOL    HW133796   0.866   7.340   2.732 -0.0696 -0.6323 -0.0808
10785SOL    HW233797   0.913   7.196   2.741  2.8920  0.2718  0.2621
10786SOL     OW33798   1.753   6.696   2.824 -0.5020  0.1215  0.0917
10786SOL    HW133799   1.783   6.783   2.850 -0.8245  0.2298  0.1103
10786SOL    HW233800   1.665   6.690   2.861 -1.0775  0.3863 -1.1914
10787SOL     OW33801   1.984   6.299   9.200 -0.1044  0.6518  0.1902
10787SOL    HW133802   1.916   6.281   9.264 -1.5831  0.6596 -1.3165
10787SOL    HW233803   1.940   6.294   9.115  1.9619 -0.2997 -0.9177
10788SOL     OW33804   1.540   3.423  10.954  0.2013  0.2426 -0.3964
10788SOL    HW133805   1.591   3.430  10.874  0.5119  0.4129 -0.1850
10788SOL    HW233806   1.461   3.375  10.929  0.6591 -0.3851 -0.6324
10789SOL     OW33807   3.860   0.545  10.614  0.2424 -0.1702  0.5005
10789SOL    HW133808   3.797   0.509  10.676 -1.5424  1.1626 -0.4212
10789SOL    HW233809   3.942   0.553  10.664 -1.0754  0.7210  2.6671
10790SOL     OW33810   4.977   7.080   2.599  0.1546  0.1722 -0.3086
10790SOL    HW133811   4.921   7.155   2.615 -0.6147 -0.4319 -0.0982
10790SOL    HW233812   4.975   7.067   2.504  0.5521  0.6064 -0.3796
10791SOL     OW33813   7.628   6.734   8.656  0.8104 -0.6383  0.3049
10791SOL    HW133814   7.568   6.665   8.627  0.3088  0.0894 -0.4173
10791SOL    HW233815   7.575   6.790   8.713  1.1582 -0.7226  0.7154
10792SOL     OW33816   0.811   2.931  10.459  0.1954 -0.6971  0.0089
10792SOL    HW133817   0.888   2.885  10.495 -0.6314 -1.5356  0.7640
10792SOL    HW233818   0.738   2.900  10.513 -0.2322  2.6715  1.6175
10793SOL     OW33819   4.405   4.736  10.210 -0.3468 -0.0067 -0.1135
10793SOL    HW133820   4.334   4.700  10.263 -0.2559  1.6593  1.2274
10793SOL    HW233821   4.482   4.731  10.268  0.0776  0.5073 -0.6278
10794SOL     OW33822   4.034   2.254   7.134 -0.4558 -0.6221  0.3294
10794SOL    HW133823   4.017   2.254   7.039  0.8553 -1.6236  0.0726
10794SOL    HW233824   4.112   2.308   7.143  0.2437 -1.6688  0.6660
10795SOL     OW33825   0.609   2.056   0.007  0.3728  0.3413  0.5153
10795SOL    HW133826   0.540   1.995  -0.018  1.8623 -1.0393 -0.4352
10795SOL    HW233827   0.633   2.031   0.096  1.2217 -0.7539  0.0047
10796SOL     OW33828   4.820   3.840   5.511  0.0003 -0.0208 -0.0853
10796SOL    HW133829   4.852   3.930   5.523  0.0632 -0.0361 -0.1414
10796SOL    HW233830   4.821   3.803   5.599  2.0256 -0.6642 -0.3385
10797SOL     OW33831   3.473   4.552  12.253  0.5729  0.4598  0.0334
10797SOL    HW133832   3.398   4.552  12.195  0.2498  1.3565  0.4399
10797SOL    HW233833   3.498   4.644  12.261 -1.1867  0.8293  3.5380
10798SOL     OW33834   6.296   2.933   2.961 -0.3553 -0.0407 -0.2052
10798SOL    HW133835   6.303   2.972   3.048  0.9261 -0.4945 -0.0879
10798SOL    HW233836   6.386   2.911   2.937 -0.6549  0.3323 -1.7682
10799SOL     OW33837   5.876   2.371   1.488 -0.1936  0.1699  0.3866
10799SOL    HW133838   5.850   2.303   1.550 -1.8995  0.5813  0.1709
10799SOL    HW233839   5.810   2.440   1.498 -1.2842 -0.2677 -2.7307
10800SOL     OW33840   4.674   0.281   4.342 -0.2633  0.6976 -0.2947
10800SOL    HW133841   4.698   0.194   4.310 -0.6015  0.4362  0.1530
10800SOL    HW233842   4.741   0.339   4.306 -0.3701  0.3420 -1.0911
10801SOL     OW33843   1.990   1.250   8.695 -0.0976  0.5923  0.1771
10801SOL    HW133844   2.060   1.223   8.754  1.7187  0.6396 -1.8327
10801SOL    HW233845   1.944   1.168   8.674  0.0640  0.3860  0.6215
10802SOL     OW33846   4.122   6.438  11.117 -0.6892  0.0097 -0.0803
10802SOL    HW133847   4.203   6.408  11.159 -0.1751 -0.6324 -1.4697
10802SOL    HW233848   4.055   6.376  11.146 -0.7922  0.7942  1.4171
10803SOL     OW33849   2.522   5.424   1.197  0.5264 -0.0855 -0.4519
10803SOL    HW133850   2.595   5.425   1.258 -1.6286  2.8989  2.4497
10803SOL    HW233851   2.444   5.420   1.252 -1.5652  0.3871 -3.1484
10804SOL     OW33852   4.979   3.530   6.404 -0.5626  0.1974 -0.1750
10804SOL    HW133853   4.903   3.579   6.373 -0.5050  1.7248  1.8905
10804SOL    HW233854   4.957   3.507   6.495  0.8673 -0.5622 -0.0001
10805SOL     OW33855   2.965   2.674   2.265  0.0978  0.0701 -0.2402
10805SOL    HW133856   3.051   2.707   2.290  0.8260 -1.8015 -0.0973
10805SOL    HW233857   2.908   2.700   2.337  1.0015 -0.4244  0.6841
10806SOL     OW33858   5.098   4.005   6.114 -0.3342 -0.2512 -0.1192
10806SOL    HW133859   5.175   4.024   6.168 -0.2700 -1.8715  0.4007
10806SOL    HW233860   5.134   3.978   6.030 -0.3713  0.0380 -0.2290
10807SOL     OW33861   4.633   7.504  10.118  1.0165 -0.2447 -0.2486
10807SOL    HW133862   4.667   7.443  10.183 -0.0034 -0.1432  0.4082
10807SOL    HW233863   4.657   7.591  10.152  0.6203 -0.1993 -0.0676
10808SOL     OW33864   0.480   7.465   4.726 -0.5979  0.3340  0.3727
10808SOL    HW133865   0.441   7.552   4.735 -1.2345  0.0801  0.1516
10808SOL    HW233866   0.431   7.410   4.788  0.9632  0.4835  1.8385
10809SOL     OW33867   7.391   1.941  12.181  0.0020 -0.5514 -0.3159
10809SOL    HW133868   7.335   1.915  12.254 -0.1136  0.4337 -0.0285
10809SOL    HW233869   7.473   1.895  12.196 -0.3676 -1.1620 -0.1407
10810SOL     OW33870   0.706   4.092  12.008 -0.4186 -0.5468  0.8759
10810SOL    HW133871   0.782   4.034  12.012  0.1918  0.2352  0.8759
10810SOL    HW233872   0.677   4.099  12.098 -0.2508 -0.5400  0.9311
10811SOL     OW33873   5.080   5.354   9.468 -0.3816  0.2885  0.0981
10811SOL    HW133874   4.992   5.368   9.435  0.0239  0.4172 -0.9585
10811SOL    HW233875   5.133   5.339   9.390  0.3499 -0.8202  0.7688
10812SOL     OW33876   6.738   3.780   5.577  0.1843  0.0580 -0.4694
10812SOL    HW133877   6.766   3.728   5.652 -0.0353 -2.1580 -1.8205
10812SOL    HW233878   6.807   3.844   5.565  2.2654 -2.0828 -0.7171
10813SOL     OW33879   1.483   0.792   8.525 -0.1495 -0.6344 -0.5767
10813SOL    HW133880   1.431   0.781   8.605  2.0795  0.2956  1.1247
10813SOL    HW233881   1.432   0.750   8.457 -1.2567 -3.2867  1.6872
10814SOL     OW33882   7.887   1.033   9.202  0.1502  0.0399  0.4688
10814SOL    HW133883   7.916   1.093   9.271  1.5583  0.7480 -0.6684
10814SOL    HW233884   7.858   0.955   9.248 -0.1489  0.9732  1.9153
10815SOL     OW33885   4.679   6.890   5.303  0.1651 -0.2540 -0.0172
10815SOL    HW133886   4.735   6.965   5.321 -0.9324  0.4168  0.7397
10815SOL    HW233887   4.722   6.815   5.344  0.6671  0.1802  0.2424
10816SOL     OW33888   5.172   1.196   2.962  0.1948 -0.1145 -0.1392
10816SOL    HW133889   5.104   1.257   2.990 -0.4937  0.1685 -2.2143
10816SOL    HW233890   5.252   1.247   2.963 -0.1291  0.4067 -0.4451
10817SOL     OW33891   7.689   3.967   9.638 -0.0650 -0.0267  0.3802
10817SOL    HW133892   7.647   3.884   9.617 -0.9901  0.2958  0.9021
10817SOL    HW233893   7.627   4.011   9.696  0.8401  0.6210  0.8795
10818SOL     OW33894   3.214   2.776  11.116  0.0275 -0.1103  0.3442
10818SOL    HW133895   3.267   2.829  11.176  0.3401 -0.0906  0.0539
10818SOL    HW233896   3.142   2.743  11.170 -0.1866  0.6281  0.5267
10819SOL     OW33897   3.660   5.331   4.806 -0.4191 -0.1643  0.3099
10819SOL    HW133898   3.659   5.426   4.803 -1.1654 -0.1780 -0.0630
10819SOL    HW233899   3.753   5.308   4.803 -0.1747  0.5667  1.3974
10820SOL     OW33900   7.637   3.413   5.394 -0.0531 -0.0353  0.5039
10820SOL    HW133901   7.704   3.345   5.402  0.8028  0.7638  0.2751
10820SOL    HW233902   7.674   3.488   5.441 -0.4372  0.6799 -0.3239
10821SOL     OW33903   4.362   1.474   8.490  0.5880  0.7015  0.2330
10821SOL    HW133904   4.370   1.460   8.396 -0.7666 -0.3387  0.2340
10821SOL    HW233905   4.279   1.431   8.513  2.1021 -1.3407  2.3368
10822SOL     OW33906   4.866   3.695   5.754 -0.2125 -0.0016 -0.1062
10822SOL    HW133907   4.917   3.654   5.823 -0.9141  0.4169  0.6853
10822SOL    HW233908   4.775   3.675   5.776 -0.6220  2.2288  0.5345
10823SOL     OW33909   0.040   3.486   3.728  0.7706  0.7806  0.4343
10823SOL    HW133910   0.006   3.573   3.706 -0.1232  0.3264 -0.0114
10823SOL    HW233911   0.128   3.485   3.690  0.5563  1.2718 -0.0937
10824SOL     OW33912   6.695   6.971   6.448 -0.0171 -0.5977  0.1180
10824SOL    HW133913   6.652   6.888   6.469 -0.0641 -0.2040  1.6992
10824SOL    HW233914   6.698   6.973   6.352 -2.5343 -1.1134 -0.0227
10825SOL     OW33915   5.490   2.808   7.779  0.2083 -0.7193  0.4940
10825SOL    HW133916   5.419   2.821   7.716 -0.8360 -1.5605  1.4580
10825SOL    HW233917   5.514   2.716   7.769  1.6670 -0.2899 -0.2981
10826SOL     OW33918   3.359   0.125   2.206  0.0553  0.0729  0.1045
10826SOL    HW133919   3.265   0.121   2.225 -0.1980 -0.0735 -1.1244
10826SOL    HW233920   3.392   0.039   2.231 -0.1880  0.0262  0.2661
10827SOL     OW33921   0.195   2.370   1.797 -0.5064  0.1587  0.4421
10827SOL    HW133922   0.223   2.304   1.734  0.3076  1.1440 -0.2735
10827SOL    HW233923   0.223   2.336   1.882 -0.1023 -0.4105  0.0855
10828SOL     OW33924   5.345   4.390   6.246  0.2320  0.3313 -0.0869
10828SOL    HW133925   5.403   4.315   6.259  0.0926 -0.0028 -1.2881
10828SOL    HW233926   5.367   4.422   6.158 -0.5976  0.9208 -0.0900
10829SOL     OW33927   3.330   7.093  12.235  0.2209  0.4193 -0.7749
10829SOL    HW133928   3.376   7.029  12.180 -1.1215 -2.0602  0.8164
10829SOL    HW233929   3.241   7.058  12.243 -0.1932  1.7974  1.2718
10830SOL     OW33930   2.830   3.025   0.881  0.0816 -0.7269 -0.7271
10830SOL    HW133931   2.906   2.973   0.853 -0.4936 -1.9926 -0.0122
10830SOL    HW233932   2.763   2.960   0.902 -0.3566  0.2597  1.1004
10831SOL     OW33933   2.887   3.895   1.955  1.0503 -0.2316 -0.2901
10831SOL    HW133934   2.870   3.980   1.997  0.0964 -0.7427  0.3987
10831SOL    HW233935   2.904   3.835   2.028 -0.4431 -1.0968 -0.6229
10832SOL     OW33936   4.773   0.732   9.046 -0.2998 -0.2982 -0.8377
10832SOL    HW133937   4.849   0.686   9.013 -0.6247 -1.5874  0.1331
10832SOL    HW233938   4.804   0.777   9.125 -0.5135 -0.7852 -0.4684
10833SOL     OW33939   7.591   6.487   1.668  0.5085  0.3290  0.0330
10833SOL    HW133940   7.659   6.533   1.717 -0.6993  0.7122  1.4208
10833SOL    HW233941   7.611   6.395   1.680  1.2939  0.4423 -0.3439
10834SOL     OW33942   1.304   6.365   3.865  0.0747 -0.4379  0.0602
10834SOL    HW133943   1.352   6.413   3.798  1.0484  0.0684  1.0994
10834SOL    HW233944   1.270   6.433   3.923 -1.5819 -0.8080 -0.4106
10835SOL     OW33945   6.998   4.588   2.190  0.1457 -0.5601  0.1835
10835SOL    HW133946   6.996   4.680   2.216  1.7997 -0.5491  0.3820
10835SOL    HW233947   7.064   4.585   2.120  0.3993 -1.6475  0.4568
10836SOL     OW33948   6.863   5.963   3.457  0.0576 -0.4242 -0.9485
10836SOL    HW133949   6.937   5.905   3.473  0.6061 -0.2811 -2.6943
10836SOL    HW233950   6.802   5.909   3.406  0.1807  0.2471 -1.8258
10837SOL     OW33951   2.137   3.540   6.247 -0.3888 -0.1535  0.2009
10837SOL    HW133952   2.098   3.625   6.264 -1.9876  0.2093 -4.0621
10837SOL    HW233953   2.229   3.558   6.230  0.0206  0.1574  2.5057
10838SOL     OW33954   1.621   7.236   3.082 -0.0937 -0.5953 -0.0470
10838SOL    HW133955   1.658   7.282   3.157 -1.7900  0.8174 -0.0146
10838SOL    HW233956   1.674   7.266   3.007 -2.0954  2.8867 -0.3056
10839SOL     OW33957   5.653   5.268   9.624 -0.5053  0.2689 -0.4368
10839SOL    HW133958   5.567   5.260   9.583  0.3225 -0.5104 -2.1026
10839SOL    HW233959   5.712   5.219   9.567  0.9157  0.0545  1.1301
10840SOL     OW33960   0.447   1.382   4.516  0.3834  0.1558 -0.1178
10840SOL    HW133961   0.459   1.454   4.454 -0.7505  1.9188  1.5955
10840SOL    HW233962   0.435   1.305   4.460  2.6179  1.0421 -2.0163
10841SOL     OW33963   3.292   2.249   9.528 -0.3348 -0.1728 -0.0642
10841SOL    HW133964   3.217   2.299   9.561 -1.0085 -1.0382 -0.2553
10841SOL    HW233965   3.253   2.176   9.481  0.5585 -2.2115  2.1406
10842SOL     OW33966   1.805   2.467   2.591  0.0783 -0.5962 -0.6424
10842SOL    HW133967   1.767   2.408   2.656  0.6096 -0.5805 -0.3107
10842SOL    HW233968   1.872   2.415   2.547 -0.9576 -0.9298 -1.8982
10843SOL     OW33969   1.020   3.486   2.831 -0.0452 -0.4988  0.2737
10843SOL    HW133970   0.988   3.477   2.920 -0.8099  0.6073  0.1302
10843SOL    HW233971   1.058   3.401   2.810  0.3655 -0.7050  1.7280
10844SOL     OW33972   6.870   3.166   8.971 -0.6300  0.5117 -0.2378
10844SOL    HW133973   6.918   3.090   9.003  0.1433  1.6046  1.3410
10844SOL    HW233974   6.778   3.147   8.991 -0.7534 -0.9871 -2.0153
10845SOL     OW33975   1.760   1.323  10.201 -0.6563  0.0338  0.1565
10845SOL    HW133976   1.853   1.337  10.183 -0.3460 -2.7884 -0.9986
10845SOL    HW233977   1.720   1.319  10.114 -1.6446 -0.0199  0.6112
10846SOL     OW33978   4.910   5.370   6.697  0.3237  0.2165  0.3558
10846SOL    HW133979   4.919   5.359   6.791  0.4619  1.5128  0.5135
10846SOL    HW233980   4.818   5.397   6.685  0.3881  0.3526  0.1553
10847SOL     OW33981   1.739   1.193   9.560 -0.6214 -0.1531 -0.1727
10847SOL    HW133982   1.823   1.204   9.604 -1.4587  0.3374  1.3565
10847SOL    HW233983   1.746   1.108   9.515  0.9882  0.2798 -0.8189
10848SOL     OW33984   7.548   2.427   2.848 -0.0763  0.1838 -0.0441
10848SOL    HW133985   7.549   2.456   2.757  0.8226 -1.2283 -0.5199
10848SOL    HW233986   7.590   2.498   2.897  0.3826  0.5011 -0.8872
10849SOL     OW33987   5.088   3.796   7.931 -0.1785  0.1022 -0.4548
10849SOL    HW133988   5.155   3.864   7.922  0.1381 -0.0149  0.7754
10849SOL    HW233989   5.138   3.715   7.937 -0.5154 -0.1508 -1.1007
10850SOL     OW33990   3.483   1.556   8.432  0.4863 -0.0175  1.0442
10850SOL    HW133991   3.477   1.490   8.363  1.0923 -0.2055  1.1671
10850SOL    HW233992   3.520   1.510   8.507  0.5529  0.3726  1.2526
10851SOL     OW33993   5.708   1.257   3.054  0.1253  0.2694 -0.0327
10851SOL    HW133994   5.739   1.223   2.970  1.7633 -2.4786  1.5678
10851SOL    HW233995   5.730   1.350   3.050  1.9399 -0.1479 -1.8992
10852SOL     OW33996   7.963   3.309   1.870 -0.8236  0.5363  0.6824
10852SOL    HW133997   7.978   3.222   1.907  1.5385  0.2054 -0.8311
10852SOL    HW233998   7.894   3.296   1.805  0.0766 -0.4308 -0.1184
10853SOL     OW33999   6.893   3.192   1.007  0.0548  0.1620 -0.0901
10853SOL    HW134000   6.880   3.148   1.091  1.0093  1.1383  0.5955
10853SOL    HW234001   6.962   3.141   0.963  2.6353  2.0042  1.5594
10854SOL     OW34002   1.623   0.680   7.089  0.1973  0.3128 -0.3716
10854SOL    HW134003   1.705   0.664   7.042 -0.5035 -0.0284 -1.5114
10854SOL    HW234004   1.617   0.607   7.151 -0.0948 -0.6442 -1.5003
10855SOL     OW34005   7.139   1.871   7.542  0.3574  0.5329 -0.2273
10855SOL    HW134006   7.214   1.826   7.579 -1.0499 -1.2798  0.5437
10855SOL    HW234007   7.112   1.933   7.609 -2.2488 -2.8085  2.1383
10856SOL     OW34008   7.157   4.274   6.938  0.2107  0.3286 -0.1401
10856SOL    HW134009   7.178   4.189   6.977  1.0247  0.3520 -0.5201
10856SOL    HW234010   7.188   4.338   7.002 -1.4739  0.3552  0.7049
10857SOL     OW34011   5.580   0.727   3.556 -0.0608  0.1434 -0.0613
10857SOL    HW134012   5.619   0.755   3.474 -1.3843 -0.2121 -0.8441
10857SOL    HW234013   5.497   0.685   3.530 -1.2765  1.4096  1.5521
10858SOL     OW34014   6.967   2.888   0.648  0.1225 -0.0939 -0.2465
10858SOL    HW134015   6.915   2.962   0.679  1.7542  0.4005  1.5594
10858SOL    HW234016   7.004   2.919   0.565 -0.6666  0.3873 -0.4327
10859SOL     OW34017   1.831   5.268   2.348 -0.7619 -0.1485 -0.0534
10859SOL    HW134018   1.895   5.221   2.402 -2.1310 -0.0016  1.8031
10859SOL    HW234019   1.836   5.225   2.263  0.5926 -1.2461  0.5281
10860SOL     OW34020   5.073   7.645   3.433 -0.0210  0.3511 -0.7331
10860SOL    HW134021   5.047   7.558   3.402 -1.2666  0.7334 -0.8064
10860SOL    HW234022   5.073   7.638   3.528  0.7834  0.0283 -0.7490
10861SOL     OW34023   6.054   7.170   2.501  0.5228  0.0444  0.1044
10861SOL    HW134024   6.124   7.105   2.503  0.1022 -0.4919 -1.4162
10861SOL    HW234025   6.031   7.178   2.409  2.0412  4.0025 -0.1252
10862SOL     OW34026   0.747   3.332   5.161  0.7160  0.3235  1.0462
10862SOL    HW134027   0.789   3.318   5.076  0.4954  0.4000  0.9241
10862SOL    HW234028   0.659   3.361   5.140  0.3591 -0.5515  1.3005
10863SOL     OW34029   1.741   3.004   2.673  0.2167 -0.4547 -0.1843
10863SOL    HW134030   1.760   3.095   2.696 -0.5536 -0.5521  0.8974
10863SOL    HW234031   1.807   2.953   2.719 -0.2249 -0.5318  0.3700
10864SOL     OW34032   6.632   0.743   8.784 -0.0293 -0.4565  0.3070
10864SOL    HW134033   6.570   0.670   8.778 -0.7872  0.1391  0.6405
10864SOL    HW234034   6.652   0.749   8.877  2.1282 -1.9176 -0.0054
10865SOL     OW34035   4.591   5.357   0.194 -0.7013 -0.3216 -0.3685
10865SOL    HW134036   4.623   5.374   0.105 -0.8683 -1.3116 -0.6346
10865SOL    HW234037   4.565   5.265   0.192 -0.8921 -0.2954  0.6570
10866SOL     OW34038   6.153   4.341   3.067  0.0212 -0.5441  0.4032
10866SOL    HW134039   6.083   4.362   3.129 -0.9800  0.0280 -0.8734
10866SOL    HW234040   6.112   4.281   3.005  1.2707 -1.8551  0.7905
10867SOL     OW34041   4.715   1.084  10.755 -0.5516 -0.1228 -0.6984
10867SOL    HW134042   4.695   1.055  10.666 -0.0781  0.3948 -0.9859
10867SOL    HW234043   4.811   1.081  10.760 -0.5938 -0.4921 -0.0852
10868SOL     OW34044   7.200   5.851  10.556  0.1423  0.0615  0.2915
10868SOL    HW134045   7.135   5.794  10.596 -0.2534  0.0657 -0.3236
10868SOL    HW234046   7.271   5.792  10.531 -1.5280 -0.7702 -3.1031
10869SOL     OW34047   1.421   4.948   1.243  0.0853 -0.4246 -0.1387
10869SOL    HW134048   1.417   4.898   1.325  1.6188 -0.0735  0.1851
10869SOL    HW234049   1.380   4.891   1.178  0.5670 -1.5274  0.4958
10870SOL     OW34050   1.442   3.335   5.468 -0.0975  0.5427 -0.4029
10870SOL    HW134051   1.412   3.370   5.384 -1.2013 -1.9934 -1.1929
10870SOL    HW234052   1.495   3.259   5.444  0.2199  0.2168  1.1991
10871SOL     OW34053   7.398   3.235  11.189 -0.1149  0.3866 -0.5224
10871SOL    HW134054   7.471   3.173  11.185 -0.6058 -0.1537 -1.5014
10871SOL    HW234055   7.439   3.320  11.206  0.9398  0.4009 -2.8186
10872SOL     OW34056   4.354   7.103   3.915  0.2382 -0.4310  0.1109
10872SOL    HW134057   4.310   7.075   3.835 -1.5288  0.0653  0.8785
10872SOL    HW234058   4.295   7.077   3.986  0.9248  0.7315  1.1455
10873SOL     OW34059   3.589   7.455  10.825 -0.6024  0.5366  0.4426
10873SOL    HW134060   3.603   7.510  10.902  0.6011  0.6265  0.1826
10873SOL    HW234061   3.597   7.365  10.857 -0.0208  0.5749  0.4299
10874SOL     OW34062   4.790   7.052  11.451  0.4254 -0.2376 -0.1030
10874SOL    HW134063   4.812   7.111  11.379  0.1666 -0.9486 -0.7815
10874SOL    HW234064   4.726   7.101  11.503  0.6971  0.3289 -0.2885
10875SOL     OW34065   4.251   7.005  10.316 -0.2882  0.0079 -0.3993
10875SOL    HW134066   4.202   6.931  10.281  1.3347 -1.2398 -0.1729
10875SOL    HW234067   4.334   7.003  10.269 -0.4000  2.0207 -0.7452
10876SOL     OW34068   6.910   5.647   1.906 -0.6243  0.6356  0.0096
10876SOL    HW134069   6.956   5.669   1.986 -2.1058 -0.0902  1.1012
10876SOL    HW234070   6.917   5.552   1.899 -0.6179  0.6774 -0.6501
10877SOL     OW34071   5.306   6.968   6.716  0.0592 -0.1152 -0.0759
10877SOL    HW134072   5.390   6.987   6.758 -0.0581  0.1271  0.0501
10877SOL    HW234073   5.273   7.054   6.689  0.6570 -0.3358 -1.6877
10878SOL     OW34074   3.345   5.753   2.766  0.1168 -0.4118  0.0342
10878SOL    HW134075   3.360   5.684   2.831 -1.6168  0.2035  1.1722
10878SOL    HW234076   3.311   5.827   2.817 -0.5831  0.3601 -1.4813
10879SOL     OW34077   4.228   3.422   6.991  0.4619 -0.3629  0.6329
10879SOL    HW134078   4.135   3.405   7.002  0.4358  0.1881  1.4016
10879SOL    HW234079   4.232   3.513   6.961  0.8237  0.8174  3.8395
10880SOL     OW34080   5.438   1.014   2.333  0.1997 -0.0350 -0.3434
10880SOL    HW134081   5.520   1.055   2.362  0.2462 -0.8136  0.6541
10880SOL    HW234082   5.412   1.066   2.257  1.5942  0.2566 -0.6545
10881SOL     OW34083   1.531   3.385   7.509 -0.2584 -0.4780 -0.2242
10881SOL    HW134084   1.570   3.439   7.441 -0.2479  2.6210  2.0066
10881SOL    HW234085   1.445   3.361   7.475  0.5154 -0.7711 -2.0713
10882SOL     OW34086   2.173   1.645   1.172 -0.3112  0.3403  0.5458
10882SOL    HW134087   2.237   1.640   1.243  0.9743  1.7081 -0.4639
10882SOL    HW234088   2.209   1.709   1.111 -1.3287 -0.8608 -1.4148
10883SOL     OW34089   3.574   5.712   7.703  0.1448  0.0140  0.2500
10883SOL    HW134090   3.513   5.735   7.634 -0.0464 -1.1681 -0.0073
10883SOL    HW234091   3.533   5.743   7.783 -2.0668 -2.8298  0.4096
10884SOL     OW34092   3.557   5.024   9.685 -0.3138  0.0190 -0.8649
10884SOL    HW134093   3.468   4.992   9.701  0.2274 -1.3526 -0.4021
10884SOL    HW234094   3.582   5.065   9.768 -0.1450 -0.5762 -0.6079
10885SOL     OW34095   0.504   1.089   4.589  0.4960  0.4557 -0.1117
10885SOL    HW134096   0.482   1.015   4.532 -1.1121 -0.0939  1.1248
10885SOL    HW234097   0.553   1.051   4.661 -0.8306  0.4431  0.8265
10886SOL     OW34098   5.371   3.309   9.672 -0.2100 -0.1186 -0.0174
10886SOL    HW134099   5.294   3.259   9.699 -1.3951  1.4534 -0.3902
10886SOL    HW234100   5.337   3.377   9.614  0.8806  3.0384  2.7340
10887SOL     OW34101   5.905   7.244   5.633 -0.4464 -0.5560 -0.4019
10887SOL    HW134102   5.931   7.156   5.605  0.1642 -1.0808  1.6234
10887SOL    HW234103   5.952   7.303   5.574  2.4121 -1.5509  0.6953
10888SOL     OW34104   0.669   7.748   4.767  0.5132 -0.4568 -0.0548
10888SOL    HW134105   0.648   7.658   4.788 -1.7461 -0.3298 -1.4422
10888SOL    HW234106   0.585   7.794   4.771  1.6926  1.7544  1.2713
10889SOL     OW34107   0.238   1.159   3.791  0.4215 -0.6660 -0.1667
10889SOL    HW134108   0.192   1.112   3.860 -0.1718 -0.9029 -0.7161
10889SOL    HW234109   0.329   1.162   3.821 -0.4621  3.3218  2.9470
10890SOL     OW34110   6.265   1.994   0.460 -0.1097  0.0249  0.0705
10890SOL    HW134111   6.332   2.015   0.525 -0.4387  0.0198  0.4147
10890SOL    HW234112   6.183   2.024   0.500 -0.4801 -1.1204  0.2075
10891SOL     OW34113   0.457   6.794  11.486 -0.1482 -0.1103  0.2574
10891SOL    HW134114   0.444   6.703  11.510  1.0909 -0.0449  1.3214
10891SOL    HW234115   0.401   6.808  11.410  0.3084 -1.9984 -0.4713
10892SOL     OW34116   5.179   0.752   4.486  0.0404 -0.2168 -0.4523
10892SOL    HW134117   5.227   0.806   4.549 -1.4033  0.1457  0.4013
10892SOL    HW234118   5.242   0.734   4.417  0.8811  1.7370 -0.2801
10893SOL     OW34119   6.431   7.921   1.349 -0.4258  0.7649  0.1085
10893SOL    HW134120   6.475   7.943   1.431  3.1445  1.7167 -1.8512
10893SOL    HW234121   6.501   7.891   1.292 -2.7916 -0.0234 -2.5842
10894SOL     OW34122   1.473   1.608   2.552 -0.0812  0.2435  0.3789
10894SOL    HW134123   1.378   1.616   2.566  0.0402  1.2703  0.7406
10894SOL    HW234124   1.512   1.642   2.633  0.5996  0.7979 -0.1683
10895SOL     OW34125   1.627   6.416   2.897 -0.0084 -0.0531 -0.0301
10895SOL    HW134126   1.607   6.404   2.989 -0.7822  0.7747 -0.0787
10895SOL    HW234127   1.571   6.488   2.869 -3.2754 -3.0734 -2.2499
10896SOL     OW34128   4.717   2.352  10.764 -0.2181 -0.0961  0.2365
10896SOL    HW134129   4.800   2.355  10.810 -0.9106  0.8536  1.4790
10896SOL    HW234130   4.720   2.270  10.714  1.2728 -0.2780  0.5884
10897SOL     OW34131   5.414   0.928   1.594 -0.1095 -0.9859 -0.0185
10897SOL    HW134132   5.479   0.998   1.599 -0.3906 -0.6569 -0.8645
10897SOL    HW234133   5.465   0.849   1.577  0.0870 -0.7616 -0.4735
10898SOL     OW34134   0.989   2.339   0.811 -0.8255 -0.6560 -0.0444
10898SOL    HW134135   0.968   2.424   0.849 -1.6090 -1.8309  2.2900
10898SOL    HW234136   1.073   2.354   0.766 -1.2825  1.4871 -0.3057
10899SOL     OW34137   7.776   3.258  11.434  0.3686  0.5595  0.7953
10899SOL    HW134138   7.798   3.166  11.451  1.5169  0.4832 -0.8936
10899SOL    HW234139   7.814   3.277  11.348 -2.0718  1.8895 -0.0894
10900SOL     OW34140   5.780   5.349   6.468 -0.4107  0.1682 -0.4954
10900SOL    HW134141   5.774   5.339   6.373 -1.5053  0.6463 -0.4919
10900SOL    HW234142   5.786   5.259   6.501  0.4678  0.0210 -1.0352
10901SOL     OW34143   6.029   3.205  10.994 -0.3300 -0.5767 -0.1633
10901SOL    HW134144   6.047   3.226  10.902  0.5025  0.5566  0.2432
10901SOL    HW234145   6.091   3.136  11.015 -0.0305 -0.3385 -0.2540
10902SOL     OW34146   4.398   4.801   3.535 -0.1003  0.0165 -0.7060
10902SOL    HW134147   4.303   4.810   3.547 -0.1318  0.8133 -1.4661
10902SOL    HW234148   4.414   4.707   3.542 -0.8365 -0.0661  0.1678
10903SOL     OW34149   6.424   2.684   1.818 -0.3585  0.4363 -0.1210
10903SOL    HW134150   6.499   2.705   1.763 -0.1664  3.5292  1.0731
10903SOL    HW234151   6.355   2.744   1.789 -1.9492 -1.3587 -0.2588
10904SOL     OW34152   6.079   3.791  11.676  0.6761 -0.3538 -0.1649
10904SOL    HW134153   6.053   3.873  11.717  0.4203 -1.1014  1.2522
10904SOL    HW234154   6.166   3.772  11.712  0.6652 -0.7825 -0.3515
10905SOL     OW34155   3.985   1.847  10.841  0.2037  0.2328 -0.5023
10905SOL    HW134156   3.921   1.844  10.770 -1.6650 -1.7925  1.1054
10905SOL    HW234157   3.932   1.849  10.921  2.1992  0.7421  0.8992
10906SOL     OW34158   0.508   0.279  10.060 -0.0181  0.0610  0.0873
10906SOL    HW134159   0.513   0.359  10.112 -1.4374 -0.8227  1.6979
10906SOL    HW234160   0.470   0.306   9.977 -0.5762  1.0647  0.6486
10907SOL     OW34161   3.672   2.357   5.324  0.9072  0.1341  0.2453
10907SOL    HW134162   3.608   2.317   5.265  1.0075 -1.6483  1.2677
10907SOL    HW234163   3.733   2.402   5.265 -0.8034  1.2167 -0.7812
10908SOL     OW34164   6.202   2.900   9.729 -0.4487 -0.4495  0.6681
10908SOL    HW134165   6.258   2.837   9.773  2.4233  0.8570 -0.8995
10908SOL    HW234166   6.191   2.971   9.792  0.6543 -0.1935  0.5769
10909SOL     OW34167   6.699   1.399   6.092 -0.3982 -0.1287  0.0316
10909SOL    HW134168   6.759   1.460   6.136  0.6031 -0.0630 -1.3413
10909SOL    HW234169   6.633   1.456   6.052  1.0386  0.2132 -2.0088
10910SOL     OW34170   5.600   3.623   8.861 -0.2103  0.0027 -0.0392
10910SOL    HW134171   5.550   3.564   8.805 -0.1484 -1.3435  1.2689
10910SOL    HW234172   5.681   3.575   8.881  2.1488  2.4181 -2.7711
10911SOL     OW34173   4.940   5.249   2.195 -0.5800 -0.8655 -0.0593
10911SOL    HW134174   4.850   5.217   2.201 -0.4988 -1.2755 -0.8309
10911SOL    HW234175   4.948   5.280   2.104 -0.7868  1.7522  0.7260
10912SOL     OW34176   3.713   2.556   8.304 -0.3059 -0.0223 -0.5102
10912SOL    HW134177   3.769   2.586   8.376 -0.4137 -0.6129 -0.1776
10912SOL    HW234178   3.750   2.598   8.226  0.1405  0.1900 -0.1882
10913SOL     OW34179   3.252   5.196  11.355  0.1862  0.2499  0.0576
10913SOL    HW134180   3.328   5.241  11.317 -0.3531  0.5761 -0.6570
10913SOL    HW234181   3.231   5.247  11.433  0.7072  0.1595  0.2561
10914SOL     OW34182   0.222   6.665  10.379 -0.5057  0.8944 -0.4043
10914SOL    HW134183   0.269   6.618  10.448  1.0770  0.7165 -1.5235
10914SOL    HW234184   0.224   6.605  10.304  0.5901  2.2674 -1.5278
10915SOL     OW34185   5.508   1.468   8.676  0.2254  0.6098 -0.1628
10915SOL    HW134186   5.573   1.401   8.697 -1.9385 -2.0779 -1.4980
10915SOL    HW234187   5.490   1.510   8.761  0.4667 -1.6512  1.0923
10916SOL     OW34188   1.830   3.687  11.053 -0.1134 -0.3089  0.6952
10916SOL    HW134189   1.895   3.647  10.995 -2.2900 -0.3663 -1.9559
10916SOL    HW234190   1.828   3.779  11.027  0.5402  0.2313  2.4423
10917SOL     OW34191   4.321   1.080   2.698  0.1422  0.4502  0.8006
10917SOL    HW134192   4.410   1.083   2.733  0.2126  1.8079  0.5579
10917SOL    HW234193   4.270   1.137   2.755 -0.6649 -0.5303  1.1058
10918SOL     OW34194   6.922   4.007   5.644 -0.5592 -0.0852  0.2690
10918SOL    HW134195   6.874   4.088   5.661 -0.9948 -0.3053  0.1129
10918SOL    HW234196   7.014   4.032   5.648 -0.6053 -0.0905  2.7692
10919SOL     OW34197   1.431   6.801   9.046 -0.2379 -0.6816 -0.1700
10919SOL    HW134198   1.446   6.724   8.991 -1.8763 -1.8177  0.8886
10919SOL    HW234199   1.400   6.869   8.986  0.6705 -0.9993 -1.0255
10920SOL     OW34200   3.372   7.646   4.421  0.0697 -0.6459 -0.1146
10920SOL    HW134201   3.323   7.627   4.341 -2.2208  0.5922  0.9004
10920SOL    HW234202   3.305   7.657   4.489  1.7651  0.9108  1.4300
10921SOL     OW34203   7.271   6.820   9.270 -0.0784 -0.2121 -0.1184
10921SOL    HW134204   7.354   6.774   9.277  0.1165 -0.3648 -2.5405
10921SOL    HW234205   7.291   6.910   9.296  0.1133 -0.8409  2.1397
10922SOL     OW34206   1.476   1.806  10.419  0.5487  0.3393  0.5168
10922SOL    HW134207   1.496   1.741  10.351 -1.6542 -2.6162  2.4356
10922SOL    HW234208   1.495   1.760  10.501 -0.4323  2.4295  1.9768
10923SOL     OW34209   4.902   5.324   4.096 -0.3300 -0.5906  0.3143
10923SOL    HW134210   4.858   5.240   4.082  0.2617 -1.3286  2.4416
10923SOL    HW234211   4.981   5.319   4.043 -0.0359 -1.6258  0.8214
10924SOL     OW34212   6.566   4.278   0.005 -0.1392 -0.4711  0.0392
10924SOL    HW134213   6.592   4.186   0.017 -0.6021 -0.3685  2.2682
10924SOL    HW234214   6.518   4.299   0.085  0.0150  1.7597 -0.4159
10925SOL     OW34215   4.646   2.444   0.030  0.3134  0.2590  0.6543
10925SOL    HW134216   4.636   2.399   0.114  0.3291 -1.1440 -0.0758
10925SOL    HW234217   4.558   2.471   0.006  0.1822 -0.1197  0.7067
10926SOL     OW34218   6.799   2.147   9.182  0.7500  0.6597 -0.2473
10926SOL    HW134219   6.713   2.179   9.211  0.9141  1.1002 -0.2402
10926SOL    HW234220   6.796   2.053   9.198 -1.1092 -0.0103 -3.5799
10927SOL     OW34221   6.029   3.336  11.909 -0.0704 -0.3524  0.0740
10927SOL    HW134222   6.113   3.295  11.931 -0.6144 -1.7205 -0.3318
10927SOL    HW234223   6.042   3.371  11.821  0.5884  0.9551  0.6519
10928SOL     OW34224   1.947   0.092   8.973  0.0738 -0.2093  0.1185
10928SOL    HW134225   1.987   0.020   8.926 -0.7388  0.1703 -1.1983
10928SOL    HW234226   1.910   0.051   9.052 -0.6647 -1.3008 -0.7724
10929SOL     OW34227   6.659   3.158   3.132  0.0171 -0.1778  0.1351
10929SOL    HW134228   6.742   3.165   3.179  0.1740 -2.3422  0.2975
10929SOL    HW234229   6.593   3.184   3.197  0.3198 -2.1039  1.3190
10930SOL     OW34230   1.994   5.679   8.203 -0.1898 -0.3565  0.1965
10930SOL    HW134231   2.037   5.685   8.118 -1.8482 -0.9136 -0.7372
10930SOL    HW234232   1.968   5.770   8.223  0.2061 -0.2244  0.1121
10931SOL     OW34233   0.916   6.592   0.123 -1.5526  0.5006  0.1488
10931SOL    HW134234   0.860   6.610   0.198  1.2785 -0.9502  2.8261
10931SOL    HW234235   0.924   6.496   0.121 -1.1269  0.5272 -1.7046
10932SOL     OW34236   7.496   6.690   9.291 -0.4257 -0.7483  0.0542
10932SOL    HW134237   7.476   6.636   9.215  0.0951  0.7976 -1.2517
10932SOL    HW234238   7.573   6.741   9.265 -1.1989  0.9956  0.9966
10933SOL     OW34239   4.962   6.344   2.911  0.1500  0.4384  0.2262
10933SOL    HW134240   4.958   6.397   2.991 -0.4274  1.1389 -0.2519
10933SOL    HW234241   4.917   6.263   2.934  0.4892  0.4005  0.7805
10934SOL     OW34242   6.995   3.860   1.702  0.0544  0.4106 -0.2518
10934SOL    HW134243   6.966   3.951   1.698 -0.0067  0.3952 -0.1700
10934SOL    HW234244   7.054   3.850   1.628  1.0207  0.8560  0.4382
10935SOL     OW34245   2.400   3.045   3.132  0.3872  0.4281 -0.0297
10935SOL    HW134246   2.466   3.018   3.196  2.8224  1.5700 -1.8897
10935SOL    HW234247   2.413   3.140   3.124 -2.3232  0.9039  0.3378
10936SOL     OW34248   0.911   0.362   5.911  0.2348  1.0527  0.4383
10936SOL    HW134249   0.912   0.422   5.837 -0.3003  0.1946 -0.2802
10936SOL    HW234250   0.827   0.317   5.905  0.9249 -0.3195  0.5002
10937SOL     OW34251   0.125   4.385   3.529 -0.3626 -0.0654 -0.7398
10937SOL    HW134252   0.150   4.293   3.516  0.0418  0.2844 -2.8036
10937SOL    HW234253   0.200   4.435   3.497 -0.4558  1.0214  0.6497
10938SOL     OW34254   3.194   6.842   6.220 -0.7614 -0.4789 -0.1971
10938SOL    HW134255   3.270   6.866   6.273 -1.6839 -0.2303  1.0651
10938SOL    HW234256   3.150   6.925   6.202 -0.2978 -0.5223 -1.6585
10939SOL     OW34257   5.595   4.421   4.343  0.8006 -0.4246  0.4717
10939SOL    HW134258   5.675   4.454   4.304  1.6907 -2.8812  0.0353
10939SOL    HW234259   5.547   4.380   4.271  0.4431 -1.3094  1.1851
10940SOL     OW34260   1.447   2.945   5.089  0.5859 -0.3197  0.2410
10940SOL    HW134261   1.398   3.002   5.030 -0.3988  0.5432  1.8255
10940SOL    HW234262   1.539   2.955   5.063  0.2808  0.9515 -0.3690
10941SOL     OW34263   0.153   5.171   3.542  0.4068  0.2139  0.0320
10941SOL    HW134264   0.219   5.113   3.581  0.1773  0.0950  0.2495
10941SOL    HW234265   0.097   5.112   3.492  0.3481  0.2881  0.0107
10942SOL     OW34266   5.389   3.456   6.989 -0.0458 -0.0755 -0.2305
10942SOL    HW134267   5.462   3.513   6.963  0.1452 -0.2638 -0.1129
10942SOL    HW234268   5.430   3.372   7.009 -0.3245 -0.2504 -0.3845
10943SOL     OW34269   5.774   0.637  11.567  0.4021 -0.7197 -0.2117
10943SOL    HW134270   5.849   0.636  11.627  0.3473  0.8734 -0.0805
10943SOL    HW234271   5.768   0.728  11.537 -1.3894 -0.8459 -0.3450
10944SOL     OW34272   1.024   5.360   5.398  0.0828 -0.0724 -0.0329
10944SOL    HW134273   1.113   5.353   5.365 -0.1527  0.5344 -0.8228
10944SOL    HW234274   1.031   5.420   5.472  0.3515 -0.1244 -0.0163
10945SOL     OW34275   2.750   1.633   5.891  0.2525 -0.3587 -0.3697
10945SOL    HW134276   2.685   1.611   5.957  2.8721 -2.4315  1.7093
10945SOL    HW234277   2.703   1.625   5.808 -2.4791 -0.2563  1.0529
10946SOL     OW34278   6.691   7.765  10.031  0.3777  0.3505  0.0073
10946SOL    HW134279   6.596   7.756  10.041  0.3243 -0.0088 -0.7429
10946SOL    HW234280   6.727   7.685  10.070  0.3664  0.4321  0.1859
10947SOL     OW34281   0.786   7.606  10.852  0.1583 -0.2294  0.1038
10947SOL    HW134282   0.765   7.564  10.936 -0.1531 -0.8004 -0.2534
10947SOL    HW234283   0.824   7.536  10.799 -0.7672 -0.1674 -0.6537
10948SOL     OW34284   5.384   3.141  10.304 -0.4417 -0.2904 -0.0378
10948SOL    HW134285   5.477   3.120  10.311  0.3237  2.9001  1.7755
10948SOL    HW234286   5.379   3.205  10.233 -1.0617  0.2661  0.4927
10949SOL     OW34287   6.735   4.223   5.723  0.0538  0.3613  0.3470
10949SOL    HW134288   6.731   4.280   5.800 -1.4440  1.8265 -0.7699
10949SOL    HW234289   6.688   4.144   5.750  0.3808  0.4530  1.2332
10950SOL     OW34290   3.868   6.937   9.719 -0.3237  0.3261 -0.2542
10950SOL    HW134291   3.878   6.993   9.796 -1.0739  1.7693 -1.1820
10950SOL    HW234292   3.901   6.851   9.748  2.6916  1.6555  0.6176
10951SOL     OW34293   4.787   4.645   0.818  0.7342 -0.5208  0.2840
10951SOL    HW134294   4.770   4.615   0.907  1.5806  1.8450  1.3190
10951SOL    HW234295   4.704   4.684   0.789  0.3369 -1.6602 -0.1482
10952SOL     OW34296   7.022   0.321   8.532  0.0388  0.1078  0.6999
10952SOL    HW134297   6.948   0.272   8.496  0.9299  0.5155 -1.8732
10952SOL    HW234298   7.097   0.263   8.523  0.2134 -0.0598  2.7104
10953SOL     OW34299   3.398   7.207   4.672  0.0304 -0.6913 -0.0493
10953SOL    HW134300   3.387   7.280   4.610 -0.3548 -1.0817 -0.4543
10953SOL    HW234301   3.343   7.231   4.747  0.9926  0.0826  0.4328
10954SOL     OW34302   1.046   1.836   6.849  0.3869 -0.2678  0.6512
10954SOL    HW134303   1.027   1.928   6.831 -0.5505 -0.0727  2.3493
10954SOL    HW234304   0.981   1.787   6.798  0.7968  0.0093 -0.1466
10955SOL     OW34305   3.860   6.310   6.906 -0.0970 -0.2853  0.4352
10955SOL    HW134306   3.824   6.265   6.983  0.1191  1.0341  1.3416
10955SOL    HW234307   3.786   6.358   6.869  0.5415  2.2162  2.1454
10956SOL     OW34308   7.391   4.837   1.252  0.0368  0.1950  0.3758
10956SOL    HW134309   7.380   4.930   1.273  1.6295  0.2365  1.2054
10956SOL    HW234310   7.449   4.804   1.321  0.1527 -1.2309 -0.3656
10957SOL     OW34311   3.052   7.018  11.546 -0.5970 -0.4622  0.2222
10957SOL    HW134312   3.147   7.008  11.539 -0.8131 -2.2568 -0.7228
10957SOL    HW234313   3.032   6.998  11.638  0.1116  2.0771  0.9981
10958SOL     OW34314   0.034   4.855   1.926 -0.3156  0.0712  0.4280
10958SOL    HW134315   0.025   4.761   1.943 -2.3204 -0.1552 -1.4466
10958SOL    HW234316   0.121   4.865   1.888 -0.0434 -0.9991  0.7496
10959SOL     OW34317   5.467   1.541   3.786  0.1092  0.2919  0.6857
10959SOL    HW134318   5.451   1.616   3.844  1.2577  0.8053  0.3845
10959SOL    HW234319   5.469   1.579   3.698 -2.2861 -0.5875  0.2017
10960SOL     OW34320   7.078   6.130   3.152 -0.0268 -0.1658  0.0564
10960SOL    HW134321   7.165   6.166   3.168 -0.4157  1.0994 -0.5386
10960SOL    HW234322   7.022   6.174   3.216 -0.4160 -0.1048 -0.3205
10961SOL     OW34323   7.959   6.260  10.820  0.6346  1.0668  0.2439
10961SOL    HW134324   8.018   6.335  10.827  0.6579  0.9659  1.2953
10961SOL    HW234325   7.913   6.258  10.904  0.1591  0.2981 -0.0264
10962SOL     OW34326   1.314   7.744  10.889  0.0006 -0.0132  0.2503
10962SOL    HW134327   1.224   7.719  10.908 -0.0227 -1.5588 -1.6297
10962SOL    HW234328   1.363   7.662  10.894  1.2324  0.7298  0.7519
10963SOL     OW34329   5.976   2.907   1.777  0.4370  0.3711 -0.0418
10963SOL    HW134330   6.013   2.854   1.707  1.9823  0.2892  0.7899
10963SOL    HW234331   6.025   2.990   1.772 -0.3120  0.8279  0.1480
10964SOL     OW34332   0.746   1.785   5.476  0.4218 -0.0509  0.2341
10964SOL    HW134333   0.738   1.855   5.540  2.0454  1.8199 -1.4907
10964SOL    HW234334   0.675   1.802   5.413 -0.1971 -0.9634  0.6606
10965SOL     OW34335   6.936   2.404   1.113 -0.1687  0.2686 -0.4326
10965SOL    HW134336   6.917   2.323   1.066 -2.1909  1.6779 -2.2224
10965SOL    HW234337   6.988   2.456   1.051  0.6790  0.5527  0.4964
10966SOL     OW34338   5.531   2.218   3.671 -0.0627 -0.0199 -0.2397
10966SOL    HW134339   5.456   2.158   3.670  1.1857 -1.6735 -0.4925
10966SOL    HW234340   5.552   2.231   3.578  1.5539 -1.7689 -0.1863
10967SOL     OW34341   1.563   4.801  11.504  0.3845  0.2546  0.5536
10967SOL    HW134342   1.627   4.770  11.569  0.8459  0.5770  0.2590
10967SOL    HW234343   1.571   4.897  11.508  0.5118  0.2692 -0.0744
10968SOL     OW34344   3.017   4.417   9.485 -0.8557 -0.3826 -0.5932
10968SOL    HW134345   2.939   4.455   9.444  0.4503  3.2209 -0.1156
10968SOL    HW234346   2.994   4.413   9.578 -2.0318 -3.8711 -0.8933
10969SOL     OW34347   2.013   5.378  10.237  0.0014  0.2550 -0.1512
10969SOL    HW134348   2.025   5.414  10.325  1.0685  1.1605 -0.6431
10969SOL    HW234349   1.957   5.301  10.249 -0.0161  0.4799  1.2836
10970SOL     OW34350   1.194   2.816   5.153  0.7313 -0.4746 -0.6515
10970SOL    HW134351   1.287   2.826   5.170  0.7271 -2.7674  1.1778
10970SOL    HW234352   1.190   2.768   5.069  1.3554 -2.5693  0.4436
10971SOL     OW34353   2.878   7.209   0.910 -0.2281 -0.1272 -0.4220
10971SOL    HW134354   2.883   7.128   0.961 -0.7788  0.3017  0.3276
10971SOL    HW234355   2.969   7.234   0.896 -0.0572  0.2821  1.2277
10972SOL     OW34356   4.514   4.555   2.685 -0.0535 -0.0437 -0.3669
10972SOL    HW134357   4.592   4.580   2.733  0.1716 -0.0647 -0.7177
10972SOL    HW234358   4.456   4.517   2.751 -0.3411  1.2474  0.1590
10973SOL     OW34359   3.901   7.709   2.787  0.0815  0.2432  0.0910
10973SOL    HW134360   3.839   7.720   2.859  0.3031 -1.2298  0.5555
10973SOL    HW234361   3.987   7.715   2.829  0.2127 -0.6106 -0.0420
10974SOL     OW34362   2.128   2.359   1.071  0.0478  0.5892  0.1475
10974SOL    HW134363   2.209   2.381   1.025  1.4857 -1.4121  1.6087
10974SOL    HW234364   2.143   2.385   1.162 -2.0204  2.6580  0.0055
10975SOL     OW34365   2.258   5.486   0.139 -0.0844 -0.0680 -0.4823
10975SOL    HW134366   2.292   5.423   0.076  2.9996  0.0724  0.8397
10975SOL    HW234367   2.318   5.479   0.214 -2.1907  1.4059  1.4832
10976SOL     OW34368   5.390   7.695   4.024  0.0738 -0.0501  0.2470
10976SOL    HW134369   5.299   7.725   4.017  0.2236  0.4033  0.1800
10976SOL    HW234370   5.430   7.755   4.087  0.3334 -0.2291  0.2529
10977SOL     OW34371   5.373   3.366   2.220  0.0250 -0.0421 -0.7089
10977SOL    HW134372   5.292   3.402   2.186 -0.0641  0.6754  0.2259
10977SOL    HW234373   5.442   3.420   2.180  0.0631 -0.6957 -1.5572
10978SOL     OW34374   4.756   1.074   3.666  0.1752 -0.0254 -0.1765
10978SOL    HW134375   4.842   1.116   3.663 -0.3663  1.1078 -0.1636
10978SOL    HW234376   4.705   1.129   3.725 -0.7091 -0.4139 -0.5695
10979SOL     OW34377   0.425   4.084   8.611 -0.5138 -0.4457 -1.0481
10979SOL    HW134378   0.428   4.179   8.597  0.3346 -0.1947  0.4914
10979SOL    HW234379   0.363   4.073   8.683  2.5903 -0.4770  1.9331
10980SOL     OW34380   1.786   6.360   6.628 -0.3294 -0.0229  0.2230
10980SOL    HW134381   1.789   6.358   6.532 -1.1300  0.3713  0.1862
10980SOL    HW234382   1.834   6.440   6.651 -0.9611  0.3890  0.1102
10981SOL     OW34383   6.026   1.884  11.893 -0.1013 -0.9053  0.2376
10981SOL    HW134384   5.948   1.848  11.935  0.0880  0.6648  2.0496
10981SOL    HW234385   6.004   1.883  11.799 -1.7204 -1.8028  0.5780
10982SOL     OW34386   1.408   5.665   9.062  0.0768  0.5994  0.1783
10982SOL    HW134387   1.436   5.661   9.153  0.5015 -0.3354  0.0087
10982SOL    HW234388   1.315   5.691   9.067 -1.1588 -3.3447  1.1272
10983SOL     OW34389   2.478   6.859   5.319  0.3474  0.2052 -0.4310
10983SOL    HW134390   2.552   6.798   5.319 -0.7951 -1.2287 -0.3111
10983SOL    HW234391   2.441   6.851   5.407 -0.8341 -0.2103 -0.9532
10984SOL     OW34392   3.235   1.278   4.581 -0.0265 -0.2130 -0.5615
10984SOL    HW134393   3.147   1.316   4.584  0.3770  0.7133 -0.1328
10984SOL    HW234394   3.288   1.335   4.636  1.0916 -0.0880 -1.7035
10985SOL     OW34395   2.102   6.782   3.146 -0.3012  0.3425 -0.3048
10985SOL    HW134396   2.165   6.776   3.073 -0.1917  2.8743 -0.5159
10985SOL    HW234397   2.062   6.696   3.150  1.5164 -0.6502 -1.7054
10986SOL     OW34398   3.149   6.152   7.019 -0.3247 -0.5256 -0.5822
10986SOL    HW134399   3.109   6.066   7.005 -3.5373  0.3419  2.1173
10986SOL    HW234400   3.231   6.133   7.065 -1.2808 -2.1874  0.5572
10987SOL     OW34401   3.962   7.821   9.659  0.2340 -0.1407 -0.2528
10987SOL    HW134402   3.886   7.763   9.663 -0.4703  0.7280 -0.7017
10987SOL    HW234403   3.933   7.903   9.698  0.7739  0.3733 -0.8899
10988SOL     OW34404   6.043   2.226   7.596  0.1238  0.4172  0.7710
10988SOL    HW134405   6.121   2.276   7.618  1.8962 -1.1352 -1.5289
10988SOL    HW234406   6.055   2.142   7.640  0.2013 -0.1200 -0.2341
10989SOL     OW34407   6.622   5.164   2.921  0.6925 -0.2168 -0.4915
10989SOL    HW134408   6.577   5.248   2.929  0.4285 -0.4231  0.3489
10989SOL    HW234409   6.700   5.183   2.870  0.6106  0.5382 -0.3413
10990SOL     OW34410   1.776   5.017   3.844 -0.3159 -0.0151  0.2213
10990SOL    HW134411   1.862   5.058   3.832 -0.3277  0.0860  0.4733
10990SOL    HW234412   1.787   4.960   3.919  0.2078 -1.9107 -1.2136
10991SOL     OW34413   5.459   5.261   5.446  0.1916  0.0235  0.5127
10991SOL    HW134414   5.421   5.210   5.375  1.9199  0.0145 -0.4736
10991SOL    HW234415   5.484   5.344   5.405 -0.2704  0.6684  1.5026
10992SOL     OW34416   1.875   3.218   2.817 -0.9463  0.0975  0.3379
10992SOL    HW134417   1.806   3.285   2.817  0.9832  2.1944 -0.5897
10992SOL    HW234418   1.939   3.250   2.881  0.8504  0.1163 -1.3970
10993SOL     OW34419   7.635   6.512   9.566 -0.4891  0.1730 -0.1572
10993SOL    HW134420   7.655   6.555   9.482 -0.2474 -0.4723 -0.4353
10993SOL    HW234421   7.562   6.453   9.546 -0.6363  0.2463  0.1584
10994SOL     OW34422   5.523   2.715   1.981 -0.5903  0.1379 -0.2605
10994SOL    HW134423   5.524   2.745   2.072 -2.6390 -1.6988  0.4567
10994SOL    HW234424   5.594   2.650   1.976 -0.7747 -0.1029  0.1813
10995SOL     OW34425   3.826   6.990  11.844 -0.0521  0.5058 -0.4013
10995SOL    HW134426   3.856   7.022  11.929  1.1406  1.4709 -1.1458
10995SOL    HW234427   3.768   7.059  11.812  0.7209  0.8779 -1.0246
10996SOL     OW34428   2.419   7.010   7.919 -0.4688 -0.1138 -0.2871
10996SOL    HW134429   2.350   7.023   7.983 -2.6624 -1.2512 -2.2576
10996SOL    HW234430   2.473   6.940   7.956 -1.1145 -0.0872  0.7334
10997SOL     OW34431   5.115   6.146   3.210  0.3448 -0.2129  0.1484
10997SOL    HW134432   5.156   6.095   3.279  1.5128 -1.9898 -1.7401
10997SOL    HW234433   5.105   6.085   3.137 -3.6081  0.7372 -0.3587
10998SOL     OW34434   7.848   0.857   5.593 -0.4633 -0.1963  0.3981
10998SOL    HW134435   7.779   0.864   5.659 -0.7756  2.3229 -0.1214
10998SOL    HW234436   7.910   0.794   5.631 -1.5638 -0.2586  2.2306
10999SOL     OW34437   5.956   6.979   6.401  0.0670 -0.4424 -0.0579
10999SOL    HW134438   5.993   6.934   6.477  0.6432 -2.8206 -1.6147
10999SOL    HW234439   6.022   6.967   6.332 -1.1214  0.2432 -1.3694
11000SOL     OW34440   3.430   3.648   0.345 -0.0734  0.2057  0.0575
11000SOL    HW134441   3.442   3.694   0.261  0.2065  1.0880  0.5677
11000SOL    HW234442   3.465   3.560   0.329 -1.3557 -0.1245 -1.1799
11001SOL     OW34443   7.934   2.699   9.145 -0.1591  0.3018 -0.0899
11001SOL    HW134444   7.970   2.636   9.209  0.9885  1.3840  0.3861
11001SOL    HW234445   7.860   2.653   9.106  0.0179 -0.9687  0.9554
11002SOL     OW34446   0.506   4.887   5.965  0.2003  0.0333 -0.1125
11002SOL    HW134447   0.469   4.869   6.051  0.0873  2.0175  0.2955
11002SOL    HW234448   0.599   4.868   5.974 -0.1176 -1.6678 -0.1511
11003SOL     OW34449   5.131   2.582   5.802  0.6318 -0.2932  0.0742
11003SOL    HW134450   5.186   2.661   5.806  0.9868 -0.4638 -1.0245
11003SOL    HW234451   5.144   2.539   5.886  0.6784  0.6589  0.5685
11004SOL     OW34452   3.234   2.016  10.284  0.5502 -0.1106 -0.1335
11004SOL    HW134453   3.301   1.956  10.253 -0.5389 -0.9170 -1.0112
11004SOL    HW234454   3.176   1.962  10.337 -0.4319  0.1449 -0.9181
11005SOL     OW34455   4.635   4.241   1.003  0.4744  0.4681 -0.0607
11005SOL    HW134456   4.601   4.212   0.918  0.4021 -0.1300  0.1693
11005SOL    HW234457   4.671   4.162   1.042 -1.1401  0.3350  1.2510
11006SOL     OW34458   2.335   6.725  10.887 -0.2932 -0.1972 -0.0037
11006SOL    HW134459   2.259   6.729  10.829  1.3174 -0.7886 -2.3143
11006SOL    HW234460   2.301   6.751  10.973 -2.8759  0.4417 -1.1097
11007SOL     OW34461   7.807   7.346   0.262  0.4068 -0.0796 -1.0148
11007SOL    HW134462   7.744   7.396   0.210  1.6159  1.2383 -1.2812
11007SOL    HW234463   7.890   7.358   0.216  0.9924 -1.1742 -0.2773
11008SOL     OW34464   4.462   3.285   4.677  0.6354  0.2102 -0.3057
11008SOL    HW134465   4.475   3.248   4.765  0.3581  1.0280  0.0974
11008SOL    HW234466   4.492   3.376   4.685 -0.7254  0.7172 -0.6603
11009SOL     OW34467   1.578   4.665   3.982  0.5884  0.2784  0.3593
11009SOL    HW134468   1.530   4.735   4.027 -0.6644 -0.0807 -0.3851
11009SOL    HW234469   1.670   4.692   3.990  0.2870  1.0667  1.6663
11010SOL     OW34470   4.823   2.609  10.084 -0.8812 -0.0604 -0.4469
11010SOL    HW134471   4.875   2.567  10.153 -0.0218  1.4211 -0.1457
11010SOL    HW234472   4.744   2.556  10.079  0.4728 -2.1938 -0.6793
11011SOL     OW34473   1.457   7.827   6.392  0.2372 -0.2383 -0.5494
11011SOL    HW134474   1.388   7.785   6.443 -1.3185  0.5174 -1.9375
11011SOL    HW234475   1.518   7.756   6.370  0.4652 -0.7439  1.4890
11012SOL     OW34476   5.781   4.015   9.876  0.0374 -0.0248  0.4669
11012SOL    HW134477   5.731   4.083   9.832  0.3763 -0.6067 -0.8717
11012SOL    HW234478   5.799   3.950   9.808  3.4050  0.5844  0.5717
11013SOL     OW34479   6.044   0.042   5.735 -0.4929  0.0827 -0.1262
11013SOL    HW134480   5.991  -0.038   5.733 -0.5498  0.1277 -1.5165
11013SOL    HW234481   5.983   0.111   5.761 -0.6374 -0.1896  0.2639
11014SOL     OW34482   5.510   6.439  11.944 -0.1333 -0.1355  0.4959
11014SOL    HW134483   5.421   6.411  11.926  0.1432  0.0909 -1.3814
11014SOL    HW234484   5.524   6.416  12.036 -1.2342 -2.5630  0.1251
11015SOL     OW34485   6.194   6.444   6.829  0.3235 -0.2722  0.1920
11015SOL    HW134486   6.107   6.466   6.861 -0.6359 -0.6590 -2.0190
11015SOL    HW234487   6.250   6.452   6.907 -1.4234  1.2466  1.3912
11016SOL     OW34488   0.063   5.398  11.283 -0.0934 -0.1890 -0.2424
11016SOL    HW134489   0.083   5.341  11.209 -0.0182  0.9595 -1.1407
11016SOL    HW234490   0.080   5.344  11.360  1.1650 -0.9757 -1.0344
11017SOL     OW34491   6.197   3.155   1.585  0.1664 -0.4330 -0.5192
11017SOL    HW134492   6.127   3.154   1.520 -0.3345 -1.0005  0.0055
11017SOL    HW234493   6.275   3.184   1.538 -0.5576  0.8042 -0.9839
11018SOL     OW34494   5.267   4.060   6.742 -0.3783 -0.5545 -0.1020
11018SOL    HW134495   5.214   4.027   6.669  0.4294  0.2893 -1.1061
11018SOL    HW234496   5.222   4.029   6.820 -2.2638 -0.0459 -0.9189
11019SOL     OW34497   2.389   5.699  12.272  0.4930  0.0339 -0.2434
11019SOL    HW134498   2.373   5.768  12.337  0.9909  0.4796 -0.5882
11019SOL    HW234499   2.302   5.664  12.253  0.3101  0.0907  0.4478
11020SOL     OW34500   5.891   0.241   6.794  0.3172 -0.1974  0.3464
11020SOL    HW134501   5.872   0.148   6.778  0.0925 -0.0135 -0.4852
11020SOL    HW234502   5.811   0.286   6.768  0.3240  0.2098  1.0256
11021SOL     OW34503   5.368   4.277   6.627 -0.2263  0.0789 -0.5267
11021SOL    HW134504   5.321   4.200   6.661 -1.6522  1.6093  1.1542
11021SOL    HW234505   5.302   4.324   6.576  0.5644  0.3539 -1.3210
11022SOL     OW34506   2.730   0.622   7.220  0.5683 -0.4179 -0.1523
11022SOL    HW134507   2.663   0.570   7.265  0.4977  0.5810  0.9427
11022SOL    HW234508   2.802   0.627   7.283  1.7181 -1.5318 -1.3449
11023SOL     OW34509   3.878   1.186   9.595  0.2080  0.8147  0.4561
11023SOL    HW134510   3.948   1.196   9.531  0.4154  1.1247  0.7307
11023SOL    HW234511   3.915   1.218   9.677 -0.1029  0.5544  0.7031
11024SOL     OW34512   3.742   3.750   3.244  0.2423 -0.3647 -0.6411
11024SOL    HW134513   3.751   3.776   3.336  1.6194 -1.4247 -0.4341
11024SOL    HW234514   3.654   3.713   3.237 -0.0359  0.1327  0.1405
11025SOL     OW34515   2.070   4.820   7.086  0.3406 -0.2142  0.3088
11025SOL    HW134516   2.041   4.886   7.023  1.6205  0.2949  0.2211
11025SOL    HW234517   1.989   4.788   7.126 -0.3788  0.6326 -0.4214
11026SOL     OW34518   4.424   0.544   9.837 -0.5006  0.0185  0.4052
11026SOL    HW134519   4.337   0.507   9.824 -0.3971  0.1696 -0.8298
11026SOL    HW234520   4.430   0.559   9.931 -1.2907 -1.2527  0.6871
11027SOL     OW34521   2.037   3.919   1.644 -0.1574 -0.4101 -0.3278
11027SOL    HW134522   1.960   3.956   1.687 -0.1683  0.2473 -0.8944
11027SOL    HW234523   2.081   3.994   1.604  1.8017 -0.4898  1.5297
11028SOL     OW34524   1.918   7.660   1.899 -0.7053  0.0668 -0.1358
11028SOL    HW134525   1.869   7.728   1.852 -1.5292 -0.9836 -0.8489
11028SOL    HW234526   2.006   7.695   1.908 -0.8240  0.7719 -1.4805
11029SOL     OW34527   7.423   5.485  11.088  0.0664 -0.2753 -0.6324
11029SOL    HW134528   7.480   5.562  11.079  0.3693 -0.5610 -1.2171
11029SOL    HW234529   7.419   5.469  11.182  0.2980  0.2340 -0.5303
11030SOL     OW34530   4.112   4.938   2.995  0.1082 -0.2256 -0.5790
11030SOL    HW134531   4.182   4.956   3.058 -1.4457 -2.0302  1.8462
11030SOL    HW234532   4.156   4.931   2.911  2.9016 -1.6215  0.8710
11031SOL     OW34533   3.618   4.811   8.513  0.1597  0.1638 -0.0020
11031SOL    HW134534   3.574   4.750   8.572  1.4479 -1.1460 -0.3258
11031SOL    HW234535   3.567   4.892   8.520 -3.3340 -1.6646 -1.6237
11032SOL     OW34536   1.778   6.758   7.389  0.4350 -0.3876 -0.5243
11032SOL    HW134537   1.683   6.764   7.389  0.4635  0.1228 -0.6861
11032SOL    HW234538   1.799   6.705   7.466  0.0473 -0.0295 -0.1702
11033SOL     OW34539   3.676   0.001   3.028  0.0006  0.3403  0.3351
11033SOL    HW134540   3.739   0.033   2.963 -0.5720  2.5785  0.7821
11033SOL    HW234541   3.594   0.044   3.005 -0.8945 -0.9724  0.9512
11034SOL     OW34542   7.700   2.633   3.727  0.2476  0.6549  0.1051
11034SOL    HW134543   7.616   2.669   3.754 -0.1632  1.1592 -1.6960
11034SOL    HW234544   7.720   2.678   3.645  0.8675 -1.5273 -1.0141
11035SOL     OW34545   5.823   3.828   8.805 -0.4849 -0.1323  0.7996
11035SOL    HW134546   5.765   3.752   8.799 -3.9727  2.2575  1.2183
11035SOL    HW234547   5.891   3.811   8.740 -0.0510 -4.3036  2.0382
11036SOL     OW34548   5.462   4.157   3.105  0.1724  0.0531  0.0106
11036SOL    HW134549   5.368   4.139   3.110  0.1666 -0.1313 -0.6166
11036SOL    HW234550   5.468   4.249   3.081  0.1511  0.0674  0.0600
11037SOL     OW34551   3.007   5.090   4.333  0.6154  0.2924 -0.5189
11037SOL    HW134552   2.983   5.180   4.355  0.5127  0.0898  0.2205
11037SOL    HW234553   2.932   5.038   4.360  0.7858 -0.0472 -0.6921
11038SOL     OW34554   6.468   2.520  10.862  0.2245  0.0514 -0.1518
11038SOL    HW134555   6.448   2.426  10.856  0.5763 -0.0534  0.2958
11038SOL    HW234556   6.415   2.560  10.793 -0.3745 -0.4067  0.0382
11039SOL     OW34557   4.426   4.058  10.531  0.2249  0.2948 -0.4832
11039SOL    HW134558   4.462   4.146  10.518  1.2999 -0.1799 -0.8195
11039SOL    HW234559   4.485   4.001  10.481 -1.1401 -0.4882 -1.2626
11040SOL     OW34560   2.623   1.704   7.613  0.2585  1.0059  0.0442
11040SOL    HW134561   2.620   1.611   7.635 -0.2912  0.8312 -0.7154
11040SOL    HW234562   2.657   1.746   7.692 -0.2330  0.2560  0.6726
11041SOL     OW34563   1.185   0.956   6.633 -0.1261  0.2549  0.8464
11041SOL    HW134564   1.279   0.962   6.620 -0.2170  1.2738  0.5460
11041SOL    HW234565   1.174   0.891   6.702  0.6743 -1.3523 -0.4691
11042SOL     OW34566   6.305   2.054   6.537 -0.2480 -0.1427 -0.2091
11042SOL    HW134567   6.215   2.036   6.563 -0.3546 -0.7894 -0.9903
11042SOL    HW234568   6.355   1.979   6.568  0.3093  0.9050  1.5671
11043SOL     OW34569   7.923   1.404  10.695 -0.3115  0.6006  0.4185
11043SOL    HW134570   7.956   1.446  10.616  0.2751 -0.3512  0.1449
11043SOL    HW234571   7.949   1.312  10.687  0.4992  0.6278  2.0731
11044SOL     OW34572   5.312   7.478   2.641  0.5646  0.3439 -0.0783
11044SOL    HW134573   5.277   7.516   2.721  0.8420  1.5494 -0.5043
11044SOL    HW234574   5.407   7.478   2.654  0.7384  2.1127 -1.0284
11045SOL     OW34575   7.729   3.474  11.622 -0.1362 -0.3615 -0.1787
11045SOL    HW134576   7.742   3.416  11.548  0.5714 -0.0230 -0.3211
11045SOL    HW234577   7.688   3.418  11.689 -1.6743 -0.4455 -1.1321
11046SOL     OW34578   0.324   5.790   5.389 -0.5118 -0.0631 -0.1894
11046SOL    HW134579   0.370   5.729   5.331 -0.9563 -0.5269 -0.0602
11046SOL    HW234580   0.387   5.807   5.459 -0.1381  0.1550 -0.5747
11047SOL     OW34581   7.119   5.479   1.597 -0.4426 -0.2053  0.3653
11047SOL    HW134582   7.083   5.553   1.547  0.2517 -0.2046 -0.1540
11047SOL    HW234583   7.150   5.518   1.679  0.2980  0.1655 -0.0781
11048SOL     OW34584   7.345   5.407   4.187  0.3761  0.2851 -0.2531
11048SOL    HW134585   7.324   5.493   4.151  4.0332  1.8857  0.9818
11048SOL    HW234586   7.348   5.349   4.111  0.6547  1.9037 -1.5174
11049SOL     OW34587   7.532   3.847  11.136  0.4291 -0.4229  0.9100
11049SOL    HW134588   7.538   3.890  11.221 -1.4447 -2.4468  2.1705
11049SOL    HW234589   7.616   3.803  11.125 -0.5616 -3.3811  3.6965
11050SOL     OW34590   4.263   7.372   8.935  0.0165 -0.1289 -0.2566
11050SOL    HW134591   4.273   7.376   9.030  0.9925  2.6703 -0.3671
11050SOL    HW234592   4.292   7.284   8.911 -1.2850 -1.2868  2.0787
11051SOL     OW34593   0.315   4.889   3.687  0.2677  0.1583 -0.0591
11051SOL    HW134594   0.377   4.956   3.716 -0.9546  1.3717 -0.1235
11051SOL    HW234595   0.310   4.827   3.759  0.7856  0.5934  0.3582
11052SOL     OW34596   7.788   0.794   4.188  0.3180  0.6583  0.0251
11052SOL    HW134597   7.872   0.754   4.165  0.0120 -1.2181  1.9589
11052SOL    HW234598   7.800   0.887   4.168  1.1393 -0.1575 -4.3970
11053SOL     OW34599   2.345   5.765  11.175 -0.5383 -0.4523  0.4631
11053SOL    HW134600   2.253   5.785  11.159 -0.0919  0.5615 -1.0625
11053SOL    HW234601   2.393   5.834  11.129  1.0143 -2.1989 -0.6902
11054SOL     OW34602   2.174   1.009   3.520 -0.0793 -0.2236  0.3634
11054SOL    HW134603   2.262   1.025   3.486 -0.8301  0.7146 -1.2944
11054SOL    HW234604   2.155   0.918   3.498 -0.4042  0.2605 -1.5125
11055SOL     OW34605   4.201   2.739   4.082  0.5639  0.5488 -0.7739
11055SOL    HW134606   4.287   2.695   4.087  0.0205 -0.8655 -2.8096
11055SOL    HW234607   4.167   2.716   3.996 -1.4491  1.9319 -0.4117
11056SOL     OW34608   7.082   1.722   9.224  0.3321  0.4114  0.1059
11056SOL    HW134609   6.989   1.732   9.244  0.2422 -0.0289 -0.0716
11056SOL    HW234610   7.098   1.628   9.233  1.1531  0.6852  1.7670
11057SOL     OW34611   2.692   5.323   0.246  0.1222 -0.1055 -0.1802
11057SOL    HW134612   2.739   5.298   0.325  0.1929  0.8448  0.0837
11057SOL    HW234613   2.741   5.283   0.175  0.0271 -1.0147  0.2480
11058SOL     OW34614   5.019   0.190   4.008  0.5319  0.4141  0.2643
11058SOL    HW134615   5.053   0.212   4.095  0.8110  0.6699  0.0927
11058SOL    HW234616   5.090   0.213   3.948  0.2677  0.4177 -0.0495
11059SOL     OW34617   2.528   5.643   9.245 -0.2539  0.4323  0.0027
11059SOL    HW134618   2.493   5.632   9.156  0.6929 -0.9696 -0.2300
11059SOL    HW234619   2.461   5.604   9.302 -0.6947  1.0022 -0.1166
11060SOL     OW34620   3.957   0.376   9.629 -0.0176 -0.1460  0.0031
11060SOL    HW134621   4.038   0.373   9.578 -0.7935  0.0510 -1.2715
11060SOL    HW234622   3.928   0.467   9.622 -0.5309 -0.2960  0.1733
11061SOL     OW34623   7.173   1.928   8.199  0.5261 -0.2679 -0.2526
11061SOL    HW134624   7.117   1.991   8.243  0.4599 -0.8032  0.4480
11061SOL    HW234625   7.165   1.949   8.106  0.2832  0.5632 -0.0455
11062SOL     OW34626   7.832   3.503  12.120 -0.0545 -0.6607 -0.3678
11062SOL    HW134627   7.806   3.584  12.077  4.6188  1.4240  0.0981
11062SOL    HW234628   7.803   3.513  12.211 -0.5580 -0.1088 -0.5873
11063SOL     OW34629   7.448   1.793   2.701 -0.0268  0.3660 -0.4676
11063SOL    HW134630   7.376   1.809   2.762  0.4525  0.7863  0.0117
11063SOL    HW234631   7.409   1.799   2.614 -0.5947  0.4396 -0.2106
11064SOL     OW34632   0.741   6.411   1.956 -0.1230 -0.0332 -0.6584
11064SOL    HW134633   0.782   6.357   1.889  1.9528 -1.1253  1.3856
11064SOL    HW234634   0.765   6.371   2.039  0.5337  3.3230  0.9671
11065SOL     OW34635   5.020   0.343   9.784  0.2786 -0.1612  0.3370
11065SOL    HW134636   4.998   0.318   9.695 -2.3743  0.6519  0.6928
11065SOL    HW234637   5.029   0.260   9.831  0.5186 -0.5619 -0.3967
11066SOL     OW34638   1.746   1.217   1.762 -0.5754 -0.3536  0.0816
11066SOL    HW134639   1.746   1.309   1.788  1.7881  0.3058 -1.9547
11066SOL    HW234640   1.754   1.169   1.845 -0.9013  1.2729  1.1056
11067SOL     OW34641   0.505   5.341   5.838 -0.4506 -0.2359  0.2529
11067SOL    HW134642   0.471   5.356   5.749  0.5081  0.6451  0.0215
11067SOL    HW234643   0.562   5.415   5.855 -0.1631 -0.6950  1.3989
11068SOL     OW34644   7.644   4.344  11.403  0.2376 -0.2014  0.1797
11068SOL    HW134645   7.552   4.327  11.385  0.3467 -0.1657 -0.4080
11068SOL    HW234646   7.671   4.271  11.460 -0.2813  0.0694  0.7878
11069SOL     OW34647   7.411   1.291  10.946 -0.4809 -0.4071 -0.1366
11069SOL    HW134648   7.423   1.209  10.899  0.8270 -0.0035 -0.5266
11069SOL    HW234649   7.480   1.292  11.012 -0.5476  0.3309 -0.0670
11070SOL     OW34650   1.125   1.289   0.386  0.4525  0.4886 -0.6037
11070SOL    HW134651   1.128   1.377   0.347 -2.0877  0.3888 -1.2184
11070SOL    HW234652   1.031   1.267   0.388  0.9655 -1.9217  0.1902
11071SOL     OW34653   3.122   4.584   2.178  0.3778 -0.4004 -0.1003
11071SOL    HW134654   3.201   4.636   2.165  0.5206 -0.5622  0.1071
11071SOL    HW234655   3.133   4.545   2.264 -0.4730  0.5236  0.4482
11072SOL     OW34656   1.406   2.950   9.834  0.4846 -0.5339 -0.3855
11072SOL    HW134657   1.390   3.008   9.759 -1.0282  0.6264  0.7924
11072SOL    HW234658   1.423   2.865   9.794  1.9198  0.4706 -2.1341
11073SOL     OW34659   2.209   4.160   7.388 -0.2485 -0.0853  0.3498
11073SOL    HW134660   2.125   4.171   7.343  0.4380  0.0522 -0.9242
11073SOL    HW234661   2.191   4.095   7.456 -1.5065  0.3166  0.4210
11074SOL     OW34662   3.281   1.132   0.225  0.0370  0.2788  0.4699
11074SOL    HW134663   3.332   1.190   0.168 -0.5225  0.9467  0.6253
11074SOL    HW234664   3.339   1.058   0.244 -0.3149 -0.8617 -2.3746
11075SOL     OW34665   4.787   5.770   8.117 -0.4920  0.1394 -0.4234
11075SOL    HW134666   4.780   5.808   8.029  1.3778 -0.3838 -0.8529
11075SOL    HW234667   4.790   5.676   8.102  0.0684  0.0577  0.1816
11076SOL     OW34668   4.095   1.285   4.518  0.0330 -0.3040 -0.0664
11076SOL    HW134669   4.141   1.220   4.465 -1.2507 -0.8141 -0.5979
11076SOL    HW234670   4.158   1.310   4.585  0.6813 -1.8453 -0.0577
11077SOL     OW34671   3.763   1.382   4.335 -0.2506  0.0614 -0.6821
11077SOL    HW134672   3.718   1.454   4.378  0.9397  0.9776 -0.9468
11077SOL    HW234673   3.854   1.390   4.362 -0.0915 -1.3507 -0.7187
11078SOL     OW34674   6.722   6.700   9.560  0.3766 -0.0067  0.3017
11078SOL    HW134675   6.776   6.625   9.536  0.3674 -0.4361  1.5283
11078SOL    HW234676   6.752   6.771   9.503  0.6781 -0.8187 -0.5812
11079SOL     OW34677   1.204   4.951   3.842  0.0841 -0.1067 -0.4974
11079SOL    HW134678   1.218   5.043   3.867 -1.1206  0.2248 -0.9625
11079SOL    HW234679   1.215   4.950   3.747 -0.5800 -0.2910 -0.5818
11080SOL     OW34680   7.555   6.643   2.887  0.2421  0.0184  0.1479
11080SOL    HW134681   7.614   6.684   2.823 -1.8444  1.1154 -1.1897
11080SOL    HW234682   7.579   6.551   2.885  0.7242  0.1464 -1.6971
11081SOL     OW34683   7.346   7.171   4.188  0.1540  0.0175 -0.0160
11081SOL    HW134684   7.293   7.096   4.162 -0.2324  0.2166  0.1820
11081SOL    HW234685   7.317   7.242   4.131 -0.6316  0.4317  0.8612
11082SOL     OW34686   4.057   2.050  11.769 -0.1634  0.3517 -0.7223
11082SOL    HW134687   3.969   2.015  11.757 -0.4405  0.8572 -0.2092
11082SOL    HW234688   4.078   2.034  11.861  0.7160 -0.7232 -1.0844
11083SOL     OW34689   6.276   4.585   7.137 -0.5668 -0.0936  0.1299
11083SOL    HW134690   6.239   4.503   7.102 -0.6515  0.8619 -2.1819
11083SOL    HW234691   6.273   4.573   7.232 -2.5724 -1.9053 -0.0697
11084SOL     OW34692   6.650   0.012  11.282  0.1172 -0.0082 -0.1521
11084SOL    HW134693   6.674  -0.079  11.267  0.0015 -0.4650  2.0551
11084SOL    HW234694   6.700   0.037  11.360 -1.1764  1.2620  0.3102
11085SOL     OW34695   7.239   2.498   9.362 -0.1699  0.5952 -0.3297
11085SOL    HW134696   7.296   2.436   9.408 -0.3834  0.0182 -0.8306
11085SOL    HW234697   7.229   2.460   9.275  0.7130  1.9698 -1.0604
11086SOL     OW34698   7.736   1.295   2.507  0.4276  0.5838 -0.2950
11086SOL    HW134699   7.774   1.255   2.585 -0.0361 -2.0258 -1.3090
11086SOL    HW234700   7.642   1.283   2.518  0.3964 -0.5372 -1.5679
11087SOL     OW34701   0.977   2.471   2.821 -0.6461 -0.2300  0.2661
11087SOL    HW134702   1.052   2.457   2.763  0.6063  1.0686  1.4788
11087SOL    HW234703   1.004   2.543   2.878 -3.4011  1.3348 -0.2005
11088SOL     OW34704   0.360   3.321   3.915  0.2265  0.5174 -0.4649
11088SOL    HW134705   0.422   3.293   3.981 -0.7762  0.6226  0.5644
11088SOL    HW234706   0.281   3.344   3.965 -1.0216 -0.6723 -1.7986
11089SOL     OW34707   0.014   1.437  10.292 -0.1183  0.3558 -0.2070
11089SOL    HW134708   0.105   1.408  10.306  0.8461  3.2256  0.0542
11089SOL    HW234709   0.017   1.488  10.211 -1.7186 -0.2285 -0.6727
11090SOL     OW34710   0.261   4.218  10.971 -0.1295  0.0606 -0.5513
11090SOL    HW134711   0.346   4.242  10.935 -0.6512  0.5639 -1.4719
11090SOL    HW234712   0.205   4.203  10.895 -1.5757  2.2492 -0.0106
11091SOL     OW34713   3.103   6.030   0.805 -0.1361 -0.5463 -0.4411
11091SOL    HW134714   3.121   6.121   0.780  5.0200 -1.4051 -0.9166
11091SOL    HW234715   3.082   6.035   0.899  3.0046  1.0669  0.3027
11092SOL     OW34716   4.009   3.065   1.224 -0.3368  0.1295  0.4193
11092SOL    HW134717   4.080   3.001   1.233 -0.4473  0.2487  2.9689
11092SOL    HW234718   3.999   3.101   1.312 -0.6986  3.2389 -0.7750
11093SOL     OW34719   2.103   7.092   2.551  0.1025  0.0730  0.3530
11093SOL    HW134720   2.155   7.169   2.529 -0.3954  0.4266  0.4215
11093SOL    HW234721   2.014   7.115   2.528  0.1748 -1.1144 -1.2758
11094SOL     OW34722   7.899   2.194   3.296  0.0252 -0.0145  0.3464
11094SOL    HW134723   7.857   2.280   3.304  1.1424  0.4894  1.1174
11094SOL    HW234724   7.913   2.183   3.202 -1.6850 -0.1654  0.0643
11095SOL     OW34725   7.234   3.555   8.462 -0.5672  0.0057 -0.1114
11095SOL    HW134726   7.195   3.477   8.501 -2.6007  0.4260 -1.1448
11095SOL    HW234727   7.249   3.530   8.370 -0.2034  0.4785 -0.1837
11096SOL     OW34728   7.098   7.297  10.417 -0.0313 -0.1496  0.3220
11096SOL    HW134729   7.089   7.273  10.509 -0.1766  1.0221  0.6365
11096SOL    HW234730   7.071   7.389  10.414  0.3365 -0.0643 -0.8269
11097SOL     OW34731   6.610   2.851  11.548 -0.3672  0.2578  0.4803
11097SOL    HW134732   6.629   2.776  11.492  1.1677 -0.1526  1.4790
11097SOL    HW234733   6.621   2.817  11.637  0.0020  1.5648  0.9527
11098SOL     OW34734   2.200   3.666   7.739 -0.0176  0.6649  0.1501
11098SOL    HW134735   2.234   3.745   7.782  1.7976 -0.5367  0.9925
11098SOL    HW234736   2.276   3.612   7.723 -0.9150  0.0742 -2.6647
11099SOL     OW34737   1.141   7.537  11.612 -0.0911 -0.1318 -0.5646
11099SOL    HW134738   1.140   7.622  11.655  2.0501 -0.7527  0.8871
11099SOL    HW234739   1.049   7.518  11.593 -0.6727  2.1230 -0.2115
11100SOL     OW34740   5.503   6.607   2.954 -0.3730  0.2756  0.1562
11100SOL    HW134741   5.494   6.612   2.859  1.5010 -0.0009 -0.0777
11100SOL    HW234742   5.499   6.698   2.983  0.9631  0.5453 -0.4280
11101SOL     OW34743   4.548   7.060   1.698 -0.7594  0.2658 -0.1996
11101SOL    HW134744   4.471   7.060   1.754  0.0425  1.6586  0.9573
11101SOL    HW234745   4.622   7.046   1.758 -0.1015 -1.3599 -1.3124
11102SOL     OW34746   6.410   5.849   3.000  0.0272  0.3301  0.3053
11102SOL    HW134747   6.339   5.843   2.936  1.1481  0.8639 -1.0396
11102SOL    HW234748   6.455   5.931   2.978  2.2758 -0.9605 -0.2230
11103SOL     OW34749   7.363   6.804   2.013 -0.3809 -0.0203  0.3424
11103SOL    HW134750   7.414   6.813   1.932 -0.4278 -0.3489  0.2766
11103SOL    HW234751   7.396   6.874   2.070  0.0999 -0.1908  0.2791
11104SOL     OW34752   1.464   5.103   9.141 -0.1397  0.2102 -0.3201
11104SOL    HW134753   1.536   5.044   9.165 -0.7960 -0.1218  0.8715
11104SOL    HW234754   1.413   5.053   9.077 -0.6989 -0.5481  0.6939
11105SOL     OW34755   6.666   0.156   0.581  0.0268  0.3450  0.0273
11105SOL    HW134756   6.719   0.078   0.596 -2.5105 -1.2786  1.3393
11105SOL    HW234757   6.692   0.186   0.494  2.8150 -0.4596  0.4886
11106SOL     OW34758   5.659   4.698   8.135  0.7144 -0.1981 -0.5417
11106SOL    HW134759   5.693   4.774   8.181  0.7664 -2.4288  3.5605
11106SOL    HW234760   5.566   4.695   8.159  0.6874 -1.3899 -0.7490
11107SOL     OW34761   2.056   5.981   2.854  0.0098  0.1681  0.6091
11107SOL    HW134762   2.142   5.984   2.896  0.4058  0.4037 -0.1954
11107SOL    HW234763   1.999   5.941   2.919  0.7512 -0.0917  1.1145
11108SOL     OW34764   7.015   4.828   6.609 -0.6915  0.1979 -0.2189
11108SOL    HW134765   6.987   4.816   6.700 -0.2307 -1.3521 -0.2444
11108SOL    HW234766   7.044   4.919   6.604  0.1025  0.0682  1.4176
11109SOL     OW34767   5.132   3.454  10.535  0.0350  0.3287  0.2256
11109SOL    HW134768   5.096   3.440  10.623  0.3085  1.3970  0.5259
11109SOL    HW234769   5.210   3.399  10.533 -0.6496 -0.6630  0.1937
11110SOL     OW34770   1.821   7.748   6.774 -0.0706 -0.1300  0.5231
11110SOL    HW134771   1.731   7.731   6.749 -0.3641  2.2189 -0.2287
11110SOL    HW234772   1.859   7.795   6.699  1.2345  0.5328  1.5503
11111SOL     OW34773   5.252   4.970  10.232 -0.1109 -0.0227 -0.3844
11111SOL    HW134774   5.296   4.886  10.218  1.2470  0.4002  1.1259
11111SOL    HW234775   5.275   4.996  10.321 -1.1373  1.5960 -0.5362
11112SOL     OW34776   7.904   7.059   6.964 -0.2344 -0.3319  0.0387
11112SOL    HW134777   7.823   7.017   6.993 -0.5340  1.7714  2.6265
11112SOL    HW234778   7.972   7.018   7.016 -0.1822  0.5185  0.6574
11113SOL     OW34779   7.147   1.137   0.213  0.7405  0.0897 -0.2817
11113SOL    HW134780   7.146   1.072   0.143 -0.7744 -1.8456  1.4287
11113SOL    HW234781   7.119   1.089   0.291  0.6852  2.5549  1.3155
11114SOL     OW34782   5.157   4.921   5.282  0.0329 -0.7624 -0.1825
11114SOL    HW134783   5.067   4.932   5.251 -0.4690 -2.7731  0.4040
11114SOL    HW234784   5.168   4.826   5.291  2.1371 -0.5577  0.0214
11115SOL     OW34785   6.895   7.198   0.588 -0.0647 -0.5930 -0.1811
11115SOL    HW134786   6.923   7.109   0.564 -0.6142 -0.9549  0.4853
11115SOL    HW234787   6.972   7.236   0.631  0.0009 -0.9369  0.0102
11116SOL     OW34788   2.063   3.502  10.087 -0.8204 -0.3300 -0.5568
11116SOL    HW134789   2.088   3.450  10.010  0.2091  1.1078 -1.2406
11116SOL    HW234790   2.140   3.498  10.144 -0.7885  0.2826 -0.5481
11117SOL     OW34791   7.285   4.909   2.639 -0.1075  0.0620 -0.3858
11117SOL    HW134792   7.364   4.868   2.603  0.0196 -0.5301  0.5489
11117SOL    HW234793   7.213   4.860   2.598  0.0177 -0.0014 -0.5325
11118SOL     OW34794   4.708   1.212   7.331 -0.0349  0.1836  0.0341
11118SOL    HW134795   4.703   1.146   7.261  0.1510  1.5263 -1.2901
11118SOL    HW234796   4.784   1.186   7.383 -0.7255 -1.3742  0.3470
11119SOL     OW34797   6.787   1.017  12.200 -0.1292 -0.3154 -0.0590
11119SOL    HW134798   6.766   0.963  12.277  0.9307 -0.3442  0.2408
11119SOL    HW234799   6.877   1.045  12.216 -0.4378  0.9825 -0.5474
11120SOL     OW34800   2.399   1.540   8.055 -1.2385  0.0378  0.3893
11120SOL    HW134801   2.404   1.452   8.091  0.8687  0.3821  1.0825
11120SOL    HW234802   2.335   1.585   8.110 -1.0736 -0.5750  1.0911
11121SOL     OW34803   4.890   0.711  10.768  0.3731  0.1532  0.3169
11121SOL    HW134804   4.968   0.750  10.728 -0.5736  0.3751 -1.4350
11121SOL    HW234805   4.880   0.757  10.851  1.4425  0.9498  0.0264
11122SOL     OW34806   1.174   4.749  11.995  0.3742 -0.1622  0.3109
11122SOL    HW134807   1.171   4.766  11.901 -0.3156 -0.3920  0.2826
11122SOL    HW234808   1.136   4.827  12.035 -0.8072 -0.7003  0.2983
11123SOL     OW34809   7.251   1.365   3.544 -0.4211  0.1693  0.0405
11123SOL    HW134810   7.271   1.459   3.552 -2.2864  0.7150 -1.0606
11123SOL    HW234811   7.265   1.330   3.632 -0.4361  1.6450  0.6624
11124SOL     OW34812   5.795   7.208   6.323  0.0904  0.1505  0.1252
11124SOL    HW134813   5.842   7.239   6.246 -0.9544 -1.1664 -1.0998
11124SOL    HW234814   5.840   7.127   6.347 -0.3650 -0.1068  0.1199
11125SOL     OW34815   0.427   1.746   0.314  0.6143 -0.2355 -0.3657
11125SOL    HW134816   0.426   1.827   0.364 -0.2182 -0.4699  0.0204
11125SOL    HW234817   0.450   1.772   0.225  0.0339  0.4626 -0.3165
11126SOL     OW34818   6.637   4.109   3.339  0.4179  0.1693  0.2500
11126SOL    HW134819   6.681   4.052   3.277  0.9968  0.2373  0.5829
11126SOL    HW234820   6.629   4.057   3.419 -0.7017 -0.0623  0.0001
11127SOL     OW34821   3.096   7.489   7.258  0.8771 -0.0394  0.2882
11127SOL    HW134822   3.171   7.430   7.245  0.0717 -0.8220 -1.0565
11127SOL    HW234823   3.020   7.431   7.254  0.1854  0.7437  1.6643
11128SOL     OW34824   2.392   2.513  10.784 -0.2034  0.2797  0.3847
11128SOL    HW134825   2.342   2.548  10.711 -0.8876  0.8027  1.0963
11128SOL    HW234826   2.480   2.551  10.774 -0.1821  0.0397 -0.3745
11129SOL     OW34827   6.654   0.370  10.664  0.6658  0.4619 -0.2770
11129SOL    HW134828   6.594   0.323  10.606 -1.7130 -0.0033  2.3318
11129SOL    HW234829   6.654   0.460  10.630 -1.6205  0.4812 -0.3852
11130SOL     OW34830   0.738   7.959   5.541 -0.4791  0.3029 -0.0063
11130SOL    HW134831   0.651   7.919   5.543  0.9648 -3.2191  0.1786
11130SOL    HW234832   0.770   7.953   5.631  0.7382 -0.5386 -0.4583
11131SOL     OW34833   5.984   1.075  10.043  0.0791  0.0683  0.0401
11131SOL    HW134834   6.023   1.055   9.958  0.4068 -2.1433  0.6403
11131SOL    HW234835   5.892   1.092  10.024  0.2236 -0.0407 -0.7907
11132SOL     OW34836   3.194   2.270  10.181 -0.3767  0.1597  1.2739
11132SOL    HW134837   3.240   2.317  10.251  1.1938 -0.6908  0.8611
11132SOL    HW234838   3.193   2.179  10.209 -0.3945 -0.0724  0.5421
11133SOL     OW34839   6.321   1.443   5.577 -0.1828  0.2888 -0.2117
11133SOL    HW134840   6.292   1.523   5.534  0.6451  1.1575  0.7920
11133SOL    HW234841   6.241   1.396   5.599 -0.6454  0.3044 -1.7854
11134SOL     OW34842   5.019   4.721   6.831  0.0883 -0.4395  0.1332
11134SOL    HW134843   5.071   4.677   6.763 -1.6189 -1.6894 -0.4220
11134SOL    HW234844   5.041   4.675   6.912  3.4559  2.1522  0.9011
11135SOL     OW34845   0.297   0.528   3.412 -0.6496 -0.3823 -0.2607
11135SOL    HW134846   0.270   0.605   3.462  0.7668  0.8221 -1.3022
11135SOL    HW234847   0.285   0.455   3.474  0.2058  0.9388  1.5583
11136SOL     OW34848   5.056   0.872   9.475  0.1138 -0.1377  0.3021
11136SOL    HW134849   5.075   0.836   9.562  0.4727 -2.0402 -0.5231
11136SOL    HW234850   5.014   0.956   9.493  0.7521 -0.1957  2.3031
11137SOL     OW34851   6.764   3.298   5.463  0.1552  0.1716 -0.5370
11137SOL    HW134852   6.808   3.270   5.543 -0.8740 -3.3261 -1.0242
11137SOL    HW234853   6.787   3.232   5.398 -2.8020  0.1847 -1.7860
11138SOL     OW34854   0.326   0.539   3.115 -0.0286 -0.6875 -0.1210
11138SOL    HW134855   0.289   0.542   3.204  0.9447  0.5430  0.2736
11138SOL    HW234856   0.419   0.519   3.129 -0.1153 -1.7515 -0.9619
11139SOL     OW34857   5.430   3.402  11.644  0.2269  0.2783  0.0061
11139SOL    HW134858   5.419   3.374  11.735  0.3531  1.3300  0.3620
11139SOL    HW234859   5.483   3.482  11.650  1.0458 -0.1568 -1.0626
11140SOL     OW34860   5.555   5.119   1.411  0.2590  0.4297  0.0396
11140SOL    HW134861   5.604   5.052   1.362 -0.4695 -0.3607  0.3555
11140SOL    HW234862   5.581   5.104   1.503 -0.0124  0.4890  0.1259
11141SOL     OW34863   7.654   3.823   0.499  0.1097  0.6291  0.3495
11141SOL    HW134864   7.748   3.840   0.510  0.0950  0.8632  0.1262
11141SOL    HW234865   7.616   3.844   0.585  0.3412 -0.0483  0.6197
11142SOL     OW34866   7.760   5.091   4.503 -0.1362 -0.2767  0.0202
11142SOL    HW134867   7.705   5.081   4.425 -1.2325  0.6793  0.6252
11142SOL    HW234868   7.720   5.034   4.568 -0.8727  0.9174  0.6670
11143SOL     OW34869   3.969   4.053   0.766 -0.2521  0.4843 -0.0724
11143SOL    HW134870   3.943   3.981   0.709  1.0129 -0.1097  0.0688
11143SOL    HW234871   3.985   4.126   0.707 -2.3561  0.9602 -0.1527
11144SOL     OW34872   0.497   5.422   1.702 -0.5310  0.0170 -0.0536
11144SOL    HW134873   0.462   5.506   1.730  1.2392  0.3101  1.5473
11144SOL    HW234874   0.430   5.385   1.645 -1.3447  2.5162 -0.8586
11145SOL     OW34875   5.685   5.736   3.111 -0.1697  0.1791 -0.0823
11145SOL    HW134876   5.755   5.751   3.048 -0.4021 -1.2079 -0.7017
11145SOL    HW234877   5.605   5.729   3.058 -0.3420 -1.2086  0.3022
11146SOL     OW34878   7.495   7.627   4.353  0.1836  0.4160  0.1096
11146SOL    HW134879   7.567   7.657   4.409  0.2900  1.0068 -0.3349
11146SOL    HW234880   7.426   7.603   4.414 -0.1223  2.1234  0.4924
11147SOL     OW34881   1.220   2.085   3.543 -0.5549  0.1192  0.2863
11147SOL    HW134882   1.253   2.127   3.463  1.4535 -2.5592 -0.4006
11147SOL    HW234883   1.294   2.084   3.603 -0.6399 -1.9867  0.4313
11148SOL     OW34884   6.904   2.062   8.325  0.6707  0.0875  0.1683
11148SOL    HW134885   6.917   1.967   8.325  0.8294  0.1059  0.6904
11148SOL    HW234886   6.884   2.083   8.416 -1.7682  0.2295 -0.3396
11149SOL     OW34887   7.317   3.974  10.295 -0.4670 -0.1268 -0.6303
11149SOL    HW134888   7.248   4.040  10.299  0.0668  0.5087 -1.5352
11149SOL    HW234889   7.347   3.965  10.385 -1.6935 -0.3732 -0.2410
11150SOL     OW34890   6.315   0.608   8.249  0.1535 -0.6460 -0.6414
11150SOL    HW134891   6.318   0.701   8.269 -0.5225 -0.4406 -1.4427
11150SOL    HW234892   6.222   0.585   8.252  0.3391 -1.3645 -0.1488
11151SOL     OW34893   6.740   7.352  10.898  0.2673 -0.6587 -0.2237
11151SOL    HW134894   6.747   7.406  10.819  0.6237  0.3611  0.4783
11151SOL    HW234895   6.816   7.294  10.894 -0.2403 -1.2812 -1.0975
11152SOL     OW34896   3.398   5.994   2.906 -0.1947 -0.5692  0.2655
11152SOL    HW134897   3.485   5.955   2.906  0.1063  0.0841 -0.3626
11152SOL    HW234898   3.384   6.023   2.997  0.5797  0.0497  0.1947
11153SOL     OW34899   5.083   5.782   2.696 -0.2647  0.0565  0.2617
11153SOL    HW134900   5.050   5.694   2.714  1.4983 -1.0360 -1.4231
11153SOL    HW234901   5.058   5.798   2.605  0.4529  0.8017  0.1856
11154SOL     OW34902   3.259   5.212   6.372 -0.4073  0.9780  0.0850
11154SOL    HW134903   3.211   5.288   6.339  0.2282  1.0517 -0.7018
11154SOL    HW234904   3.194   5.141   6.371 -1.1144  1.5725  1.1907
11155SOL     OW34905   6.169   3.470   5.034  0.0797 -0.1103  1.0458
11155SOL    HW134906   6.078   3.498   5.026 -0.1058 -1.0315 -0.4263
11155SOL    HW234907   6.212   3.541   5.082 -0.7340  1.8493 -0.9832
11156SOL     OW34908   7.402   4.543   4.803  0.3169  0.3377  0.3434
11156SOL    HW134909   7.353   4.511   4.727  0.9304  0.3890 -0.0887
11156SOL    HW234910   7.406   4.638   4.790  1.7926  0.1991 -0.4252
11157SOL     OW34911   6.852   6.770   3.834 -0.1255 -0.3884 -0.0839
11157SOL    HW134912   6.849   6.856   3.793 -1.6784 -0.2491  0.2578
11157SOL    HW234913   6.773   6.766   3.888  0.1326 -1.8592  0.2372
11158SOL     OW34914   6.112   7.671   3.998 -0.5481  0.5678  0.2210
11158SOL    HW134915   6.124   7.594   3.942  1.7568 -0.1863  1.5766
11158SOL    HW234916   6.048   7.642   4.064  0.1704 -0.1592  0.6191
11159SOL     OW34917   3.063   6.061   5.634  0.0274 -0.1688  0.0841
11159SOL    HW134918   3.085   6.136   5.689 -1.1543 -1.6872  2.7861
11159SOL    HW234919   3.101   5.986   5.679 -1.7146 -1.5811 -0.6944
11160SOL     OW34920   5.958   3.091   1.388  0.1742 -0.2610 -0.3899
11160SOL    HW134921   6.011   3.021   1.351  1.2838  0.9062 -1.0790
11160SOL    HW234922   5.998   3.172   1.355 -0.2960  0.7490  1.3862
11161SOL     OW34923   0.273   1.692  11.193  0.7236  0.1749  0.1109
11161SOL    HW134924   0.284   1.601  11.166  2.7649  0.4659 -0.1618
11161SOL    HW234925   0.226   1.733  11.121 -1.5357 -0.9324  0.8576
11162SOL     OW34926   4.692   4.547   7.280  0.2699 -0.2688  0.0778
11162SOL    HW134927   4.634   4.497   7.337  2.0463 -1.5466  0.8611
11162SOL    HW234928   4.752   4.593   7.339 -0.5527  1.8897 -0.6710
11163SOL     OW34929   7.185   6.462   5.535  0.9022 -0.5275 -0.0125
11163SOL    HW134930   7.253   6.488   5.598  1.1159  1.2870 -0.9467
11163SOL    HW234931   7.122   6.412   5.587  0.4203  1.9612  1.9559
11164SOL     OW34932   4.555   7.270   9.125  0.6910  0.9577  0.1343
11164SOL    HW134933   4.537   7.233   9.211  1.7667  0.0362 -0.0158
11164SOL    HW234934   4.563   7.364   9.141  0.3523  0.8542  0.9521
11165SOL     OW34935   7.759   1.118  10.116  0.3066 -0.3628 -0.4487
11165SOL    HW134936   7.748   1.196  10.062  1.5301  0.7877  0.8740
11165SOL    HW234937   7.853   1.101  10.114  0.7357  0.9043  2.7694
11166SOL     OW34938   7.692   2.004   6.974  0.6890 -0.0134  0.2628
11166SOL    HW134939   7.696   1.933   7.038  0.7484  0.0501  0.3303
11166SOL    HW234940   7.611   1.989   6.926  0.4453  0.1614  0.6170
11167SOL     OW34941   2.245   4.972   4.829  0.3444 -0.1784  0.0260
11167SOL    HW134942   2.274   4.962   4.920  0.0762  0.9977  0.2599
11167SOL    HW234943   2.323   5.003   4.782  0.0052  1.0402  0.2478
11168SOL     OW34944   7.908   4.033   9.495 -0.5529  0.3378  0.6662
11168SOL    HW134945   7.886   4.071   9.410 -1.1573 -1.5738 -0.0866
11168SOL    HW234946   7.823   4.018   9.537 -0.3658 -0.5128  0.7592
11169SOL     OW34947   6.239   0.328  10.516  1.2253 -1.2119 -0.0162
11169SOL    HW134948   6.300   0.401  10.505  1.4322 -1.4578 -0.5540
11169SOL    HW234949   6.228   0.294  10.428 -0.7182 -0.3593 -0.1505
11170SOL     OW34950   0.913   0.935   7.459 -0.0327 -0.0848  0.3524
11170SOL    HW134951   0.907   0.840   7.465 -1.2194 -0.1206 -1.0195
11170SOL    HW234952   0.850   0.967   7.523  0.6097 -0.1988  1.0571
11171SOL     OW34953   5.918   7.085   7.411  0.1251  0.0159 -0.1709
11171SOL    HW134954   5.833   7.111   7.378 -1.1274 -4.1967 -0.8762
11171SOL    HW234955   5.970   7.067   7.332  0.5314 -0.5905  0.2245
11172SOL     OW34956   2.590   7.689   0.119 -0.4443  0.1408 -0.4479
11172SOL    HW134957   2.637   7.625   0.173  0.7399  0.3823 -1.1582
11172SOL    HW234958   2.542   7.743   0.182  2.0324  1.3298  0.5510
11173SOL     OW34959   1.278   4.941   8.764  0.0619 -0.0092 -0.6162
11173SOL    HW134960   1.360   4.970   8.804  0.0895 -0.4254 -0.3663
11173SOL    HW234961   1.279   4.979   8.676  0.6216 -0.1973 -0.6908
11174SOL     OW34962   7.859   1.143   3.438  0.1228  0.0742 -0.1255
11174SOL    HW134963   7.862   1.129   3.533 -0.6906 -3.5991 -0.4868
11174SOL    HW234964   7.793   1.212   3.426 -2.1630 -1.5801  1.9150
11175SOL     OW34965   1.668   2.032   5.694 -0.0754 -0.1033 -0.1725
11175SOL    HW134966   1.665   1.990   5.608  3.4948  0.1259 -0.5698
11175SOL    HW234967   1.724   2.109   5.681 -1.6171  1.4645  1.8270
11176SOL     OW34968   5.181   5.852   0.277 -0.5372 -0.1824  0.5752
11176SOL    HW134969   5.246   5.864   0.346  1.4013 -0.3791 -1.1338
11176SOL    HW234970   5.140   5.768   0.297 -0.2504 -0.0840  1.6435
11177SOL     OW34971   5.473   0.311  10.280  0.4070  0.3820 -0.1748
11177SOL    HW134972   5.476   0.265  10.196 -0.7884  0.4537 -0.2703
11177SOL    HW234973   5.386   0.293  10.315  0.2853  1.6969  0.2823
11178SOL     OW34974   1.034   0.176   2.207  0.2723 -0.1934  0.0506
11178SOL    HW134975   0.955   0.210   2.251  2.3732  0.6287  3.5892
11178SOL    HW234976   1.030   0.213   2.119 -2.8592  0.4845  0.3625
11179SOL     OW34977   4.152   2.668   1.542  0.0883 -0.4009  0.8503
11179SOL    HW134978   4.103   2.696   1.620 -0.2091 -2.4834  1.4819
11179SOL    HW234979   4.228   2.622   1.577  1.0078  0.3051 -0.1374
11180SOL     OW34980   0.439   0.493   5.879 -0.1843 -0.5049  0.3245
11180SOL    HW134981   0.386   0.479   5.801 -0.3399 -0.5523  0.4395
11180SOL    HW234982   0.477   0.581   5.866 -2.5546  0.7983  1.5625
11181SOL     OW34983   3.887   0.180  10.824  0.8416 -0.1931 -0.3754
11181SOL    HW134984   3.921   0.269  10.820 -0.5405  0.3535 -0.4381
11181SOL    HW234985   3.794   0.191  10.843  0.4275 -1.5787 -1.4571
11182SOL     OW34986   4.360   5.152  11.920  0.2481 -0.4610  0.1956
11182SOL    HW134987   4.320   5.221  11.973 -0.3641 -2.4549  2.4943
11182SOL    HW234988   4.437   5.193  11.882 -0.6857  1.7873  0.5515
11183SOL     OW34989   3.247   5.257   6.839 -0.5000 -0.2544  0.0931
11183SOL    HW134990   3.299   5.300   6.907 -1.3278 -1.5517  1.6132
11183SOL    HW234991   3.307   5.193   6.800 -0.2529 -0.0762  0.1791
11184SOL     OW34992   4.317   5.071  10.843  0.0694  0.4177 -1.3329
11184SOL    HW134993   4.277   5.139  10.897  0.2637  0.3618 -1.1191
11184SOL    HW234994   4.285   5.089  10.755  0.3788  0.9797 -1.3306
11185SOL     OW34995   7.004   2.823  12.200  0.6686  0.2610  0.4623
11185SOL    HW134996   7.082   2.878  12.210  0.5055  0.3467  1.4119
11185SOL    HW234997   7.025   2.743  12.248  0.4859 -0.0614  0.0125
11186SOL     OW34998   0.358   6.398   0.229 -0.2824  0.2729  0.8569
11186SOL    HW134999   0.282   6.359   0.272 -1.7151  0.3290 -1.4397
11186SOL    HW235000   0.338   6.492   0.225 -0.2617  0.2474 -0.0445
11187SOL     OW35001   4.533   7.596   2.456  0.2424 -0.3431  0.5360
11187SOL    HW135002   4.549   7.601   2.362  0.8547 -1.0254  0.5971
11187SOL    HW235003   4.588   7.665   2.493 -1.9881  1.7743  0.2097
11188SOL     OW35004   4.327   1.336  11.408 -0.2843  0.2156 -0.4623
11188SOL    HW135005   4.385   1.395  11.360  1.5194 -1.5109 -0.5687
11188SOL    HW235006   4.301   1.385  11.486  3.2889  0.3688  0.8316
11189SOL     OW35007   3.524   3.308  10.186  0.0949 -0.4937  0.3427
11189SOL    HW135008   3.502   3.239  10.123 -1.2182 -0.4279  0.7119
11189SOL    HW235009   3.574   3.372  10.136  2.9534 -2.5176  0.3610
11190SOL     OW35010   4.281   4.668   6.296  0.2389  0.1586  0.7009
11190SOL    HW135011   4.302   4.756   6.327 -1.3845  2.1129 -3.0758
11190SOL    HW235012   4.311   4.667   6.205  0.5881 -3.4016  0.7329
11191SOL     OW35013   7.170   1.215  12.065 -0.5252  0.0938 -0.1434
11191SOL    HW135014   7.167   1.127  12.028  3.6548  0.3408 -1.4951
11191SOL    HW235015   7.188   1.272  11.991 -0.5672  1.7787  1.0926
11192SOL     OW35016   7.133   1.967   7.269  0.5857 -0.0914  0.2901
11192SOL    HW135017   7.208   1.984   7.212  0.0739  1.8421  0.1211
11192SOL    HW235018   7.170   1.924   7.345  1.7989  0.3895 -0.0116
11193SOL     OW35019   3.423   1.266  10.329  0.0673  0.1201 -0.1506
11193SOL    HW135020   3.469   1.254  10.246 -0.0367 -0.9794 -0.0648
11193SOL    HW235021   3.487   1.239  10.395 -1.0805 -2.7724 -0.0969
11194SOL     OW35022   2.000   1.762   3.002  0.1077  0.1960 -0.2198
11194SOL    HW135023   2.094   1.755   3.019 -0.1759 -1.5785  0.9587
11194SOL    HW235024   1.986   1.706   2.925  0.0597  0.7482 -0.6151
11195SOL     OW35025   7.009   2.800   6.687  0.1396  0.3320 -0.1848
11195SOL    HW135026   6.948   2.769   6.753  1.4291 -2.2090 -0.0829
11195SOL    HW235027   6.977   2.763   6.605  1.7833 -1.5607 -0.0434
11196SOL     OW35028   3.496   1.563   3.586  0.4198  0.1400 -0.2703
11196SOL    HW135029   3.577   1.597   3.626 -0.6020  1.8722  0.4146
11196SOL    HW235030   3.488   1.474   3.622  2.6323 -0.5592 -1.3207
11197SOL     OW35031   0.751   7.631  11.726  0.2336  0.1024 -0.1500
11197SOL    HW135032   0.775   7.557  11.672 -0.3452  0.9379 -1.6161
11197SOL    HW235033   0.834   7.664  11.760  0.4006 -2.0807  1.8135
11198SOL     OW35034   4.399   6.717   5.026 -0.7255 -0.0554  0.2162
11198SOL    HW135035   4.400   6.735   5.120  1.2412 -0.6098  0.3321
11198SOL    HW235036   4.426   6.799   4.986  0.1552 -0.3134  0.2595
11199SOL     OW35037   6.606   7.745   5.549 -0.0789 -0.1263  0.1301
11199SOL    HW135038   6.520   7.757   5.589 -0.1539 -0.7301  0.1679
11199SOL    HW235039   6.593   7.767   5.457 -0.7699 -2.0682 -0.2892
11200SOL     OW35040   2.897   4.410  10.407  0.2617  0.5918 -0.0297
11200SOL    HW135041   2.865   4.393  10.318  2.0649 -1.1774 -0.4086
11200SOL    HW235042   2.875   4.331  10.455  0.5614  0.9679  0.7381
11201SOL     OW35043   7.552   1.996   0.928 -0.4913 -0.1505 -0.2017
11201SOL    HW135044   7.593   1.935   0.867  1.6979  1.5993 -0.6089
11201SOL    HW235045   7.576   1.963   1.015  0.7399  0.1254 -0.4226
11202SOL     OW35046   1.503   7.892   5.936  0.1270  0.0651  0.1176
11202SOL    HW135047   1.433   7.955   5.953 -0.6441 -1.1926  1.8831
11202SOL    HW235048   1.506   7.885   5.841 -1.5404  0.7976 -0.0345
11203SOL     OW35049   5.000   2.638   2.086 -0.0795  0.1332  0.5938
11203SOL    HW135050   5.082   2.593   2.064 -0.0354  0.2532  0.5122
11203SOL    HW235051   5.026   2.728   2.104 -0.3693  0.5397 -0.8659
11204SOL     OW35052   5.824   7.390   4.569 -0.6077  0.0567 -0.2085
11204SOL    HW135053   5.809   7.418   4.659 -1.0231 -0.0050 -0.2591
11204SOL    HW235054   5.772   7.450   4.516 -0.4645  0.0103 -0.4009
11205SOL     OW35055   2.225   6.395   5.921  0.0735 -0.2386  0.1849
11205SOL    HW135056   2.224   6.390   6.016  1.0478 -1.2754  0.1601
11205SOL    HW235057   2.157   6.332   5.893 -0.4473  0.3120  0.1877
11206SOL     OW35058   1.880   0.029   7.626  0.6101  0.2674 -0.0356
11206SOL    HW135059   1.854   0.068   7.710  1.0317 -1.2815  0.8601
11206SOL    HW235060   1.834   0.081   7.560  1.0279  2.1638  1.0696
11207SOL     OW35061   1.246   1.735   4.234  0.3793 -0.0583  0.4650
11207SOL    HW135062   1.189   1.791   4.286 -1.2916 -0.6704 -0.6398
11207SOL    HW235063   1.231   1.762   4.144  0.6580 -1.2864  0.0283
11208SOL     OW35064   4.759   0.584   0.133  0.0213  0.1369 -0.2660
11208SOL    HW135065   4.769   0.630   0.216 -0.3743  2.2782 -1.3292
11208SOL    HW235066   4.848   0.568   0.103  0.1808  0.9478 -0.2436
11209SOL     OW35067   5.863   1.392   0.122 -0.7018  0.1769  0.5232
11209SOL    HW135068   5.846   1.462   0.184 -0.3003 -0.4904  1.4089
11209SOL    HW235069   5.843   1.311   0.171  1.6160 -0.4792  0.5089
11210SOL     OW35070   3.967   7.303   1.523  1.0423 -0.1731 -0.2148
11210SOL    HW135071   4.047   7.292   1.575  2.1865  1.4939 -1.4866
11210SOL    HW235072   3.983   7.383   1.472 -0.9261 -0.5010 -1.4447
11211SOL     OW35073   2.742   5.043   5.779 -0.7556  0.3660  0.3376
11211SOL    HW135074   2.659   4.998   5.762 -0.7068  0.3440  0.1543
11211SOL    HW235075   2.809   4.978   5.757 -0.6811  0.5951 -0.1386
11212SOL     OW35076   6.518   7.611   7.044 -0.0570 -0.0140 -0.5642
11212SOL    HW135077   6.432   7.581   7.014 -0.7775  2.0566 -0.7719
11212SOL    HW235078   6.504   7.635   7.136  0.1462  0.7691 -0.7251
11213SOL     OW35079   7.584   3.752   8.846  0.2174  0.1782  0.5074
11213SOL    HW135080   7.540   3.835   8.859 -0.1120  0.0795  0.0570
11213SOL    HW235081   7.622   3.730   8.931  0.5603  0.9285  0.5507
11214SOL     OW35082   5.137   0.461   3.405 -0.0341  0.1051  0.1958
11214SOL    HW135083   5.229   0.457   3.380 -0.0487 -1.4304  0.2833
11214SOL    HW235084   5.125   0.386   3.464 -1.3541  0.2054  0.0899
11215SOL     OW35085   1.432   2.883   2.014  0.2511  0.0952  0.5357
11215SOL    HW135086   1.463   2.865   2.103  3.5065 -0.8822 -0.6245
11215SOL    HW235087   1.418   2.977   2.012 -0.1465  0.0944  2.1397
11216SOL     OW35088   5.422   4.961   9.831  0.3220  0.6188 -0.1234
11216SOL    HW135089   5.459   5.050   9.833  1.3705  0.2001  0.8497
11216SOL    HW235090   5.497   4.905   9.852 -0.3558 -0.4872 -0.6288
11217SOL     OW35091   4.620   5.909   6.333  0.1286  0.2971  0.4748
11217SOL    HW135092   4.569   5.868   6.403  0.3013 -0.0472  0.4018
11217SOL    HW235093   4.703   5.933   6.375  0.1415  0.3046  0.4454
11218SOL     OW35094   6.252   3.095   0.244  0.4120 -0.0574  0.0700
11218SOL    HW135095   6.272   3.132   0.158 -0.1429  0.1306  0.0207
11218SOL    HW235096   6.318   3.134   0.303 -0.4323  1.3795  0.1121
11219SOL     OW35097   6.861   6.205   1.912 -0.0508 -0.2664 -0.3257
11219SOL    HW135098   6.869   6.132   1.973  0.2446 -0.6024 -0.7663
11219SOL    HW235099   6.916   6.181   1.838 -0.0612  0.3390 -0.5355
11220SOL     OW35100   6.022   0.584   1.480  0.5902  1.0047  0.0751
11220SOL    HW135101   6.035   0.616   1.569 -0.0446  2.2430 -0.2542
11220SOL    HW235102   6.110   0.577   1.444  0.7925  1.5810  0.4424
11221SOL     OW35103   1.159   2.291   1.580  0.2412 -0.3359  0.2414
11221SOL    HW135104   1.099   2.339   1.524 -0.2185 -0.8736  0.2601
11221SOL    HW235105   1.219   2.247   1.519  1.1629  0.8565  0.2391
11222SOL     OW35106   3.448   1.641  12.117  0.5076  0.3281 -0.4251
11222SOL    HW135107   3.508   1.651  12.192  0.5603 -0.3236 -0.3786
11222SOL    HW235108   3.365   1.614  12.156  0.9523 -1.6042 -0.6960
11223SOL     OW35109   4.325   4.555   7.582  0.0671  0.0336  0.6862
11223SOL    HW135110   4.389   4.620   7.553  0.2745 -0.1422  0.7485
11223SOL    HW235111   4.319   4.569   7.677  0.5452 -0.4235  0.7858
11224SOL     OW35112   0.582   0.865  12.115  0.5281 -0.5102 -0.0030
11224SOL    HW135113   0.649   0.932  12.101  1.8667 -1.9445 -0.6852
11224SOL    HW235114   0.621   0.804  12.178 -0.8553 -0.4310  0.9853
11225SOL     OW35115   5.236   2.857  10.078 -0.1416  0.0248  0.1276
11225SOL    HW135116   5.141   2.862  10.080 -0.1449 -0.3016  1.0612
11225SOL    HW235117   5.255   2.763  10.074  0.1439  0.1060 -1.1690
11226SOL     OW35118   0.065   3.634   7.227  0.2294  0.5429  0.1662
11226SOL    HW135119   0.104   3.702   7.172 -1.9478  0.4984 -1.5380
11226SOL    HW235120  -0.007   3.599   7.175 -0.8672 -0.7070  2.3907
11227SOL     OW35121   7.387   4.131   1.119 -0.5513 -0.2802 -0.0283
11227SOL    HW135122   7.438   4.093   1.191 -0.5915  0.0834  0.1922
11227SOL    HW235123   7.440   4.203   1.087 -0.7868 -0.0878  0.0069
11228SOL     OW35124   0.162   7.749   3.829 -0.1203  0.4516  0.1921
11228SOL    HW135125   0.241   7.802   3.814  0.2145  0.4042  1.5919
11228SOL    HW235126   0.174   7.714   3.918 -1.3416 -0.2270  0.1069
11229SOL     OW35127   7.232   5.872   2.436  0.3114  0.3936  0.0435
11229SOL    HW135128   7.284   5.893   2.514  0.5272 -0.9408  0.2769
11229SOL    HW235129   7.274   5.921   2.365  1.5364 -0.1674  0.3484
11230SOL     OW35130   7.605   6.415   4.011  0.3071 -0.0239  0.3431
11230SOL    HW135131   7.531   6.469   4.039 -0.6042 -0.5257 -0.9633
11230SOL    HW235132   7.680   6.474   4.014 -0.3815  0.8709  0.4476
11231SOL     OW35133   7.707   7.090   9.989  0.1472 -0.2878  0.2064
11231SOL    HW135134   7.772   7.040   9.939 -0.0661 -0.6064  0.2445
11231SOL    HW235135   7.727   7.182   9.969  2.4114 -0.2039  2.4288
11232SOL     OW35136   5.139   4.053  10.612 -0.1606  0.0217  0.4061
11232SOL    HW135137   5.093   4.013  10.686  0.2941  1.7349  1.6676
11232SOL    HW235138   5.212   4.100  10.651  1.8404 -1.3738 -1.4357
11233SOL     OW35139   5.254   3.452   0.767 -0.1714 -0.5366  0.4526
11233SOL    HW135140   5.255   3.448   0.863 -0.6502  0.4966  0.5053
11233SOL    HW235141   5.183   3.392   0.742 -2.5715  1.8877  0.9403
11234SOL     OW35142   5.410   4.336   5.317  0.0992 -0.0279 -0.0033
11234SOL    HW135143   5.472   4.407   5.299  0.4948 -0.7498 -1.6628
11234SOL    HW235144   5.442   4.263   5.264  0.9159 -2.1703  3.1528
11235SOL     OW35145   7.887   2.993  11.124  0.6076  0.5576 -0.2949
11235SOL    HW135146   7.965   2.962  11.170  0.6945  0.4838 -0.4900
11235SOL    HW235147   7.889   2.947  11.040 -0.8366 -1.2021  0.5438
11236SOL     OW35148   6.639   1.262   6.669 -0.3512  0.3286 -0.1675
11236SOL    HW135149   6.592   1.281   6.588 -1.3571  1.0344  0.5492
11236SOL    HW235150   6.676   1.175   6.656 -1.1100  0.1308 -1.1160
11237SOL     OW35151   7.415   5.155   4.297 -0.0937  0.3479 -0.1418
11237SOL    HW135152   7.455   5.199   4.372 -0.9593  0.0272  0.5241
11237SOL    HW235153   7.375   5.225   4.247 -2.1733  0.3237  1.3421
11238SOL     OW35154   1.699   1.093   8.921  0.0827  0.6438  0.1338
11238SOL    HW135155   1.613   1.058   8.899  1.2429 -1.5766 -1.1067
11238SOL    HW235156   1.695   1.185   8.894 -2.0489  0.7520  0.6541
11239SOL     OW35157   2.423   7.786   0.317 -0.4967 -0.7855 -0.0624
11239SOL    HW135158   2.413   7.791   0.412  0.2454 -1.3472  0.0576
11239SOL    HW235159   2.385   7.868   0.284 -0.6716 -0.5444  0.7238
11240SOL     OW35160   4.686   6.636   5.859  0.6676 -0.6288 -0.2760
11240SOL    HW135161   4.634   6.691   5.917  0.7671 -0.0306 -0.7417
11240SOL    HW235162   4.673   6.547   5.892 -0.0880 -0.4090  0.0381
11241SOL     OW35163   3.359   3.497   5.075 -0.4495  0.2819  0.1938
11241SOL    HW135164   3.437   3.537   5.035 -0.6145  0.9664  0.5445
11241SOL    HW235165   3.358   3.407   5.041 -0.5181  0.8030 -1.2608
11242SOL     OW35166   3.153   4.836   8.051  0.1350 -0.2925 -0.6573
11242SOL    HW135167   3.152   4.748   8.013  0.6153 -1.3038  1.5320
11242SOL    HW235168   3.246   4.857   8.057  0.0993 -0.3629  0.3398
11243SOL     OW35169   1.918   0.649   9.882 -0.1262 -0.0366 -0.6961
11243SOL    HW135170   1.965   0.577   9.841  1.0855 -0.1796  0.8734
11243SOL    HW235171   1.985   0.700   9.927 -1.3524  0.2054  0.9555
11244SOL     OW35172   4.002   0.049   5.361 -0.0189 -0.5684 -0.3619
11244SOL    HW135173   4.044   0.056   5.275  1.0973 -1.8642  0.0443
11244SOL    HW235174   4.034  -0.033   5.397 -1.6139 -0.7751  0.7056
11245SOL     OW35175   5.269   0.038  10.299 -0.1167  0.0512  0.4173
11245SOL    HW135176   5.349  -0.013  10.285 -0.1932 -0.0738  0.4263
11245SOL    HW235177   5.247   0.072  10.213  0.2958  0.6157  0.5280
11246SOL     OW35178   1.143   4.820  10.492 -0.3100  0.5345 -0.3040
11246SOL    HW135179   1.087   4.743  10.508  1.1148 -0.9782 -2.0809
11246SOL    HW235180   1.212   4.814  10.558  0.3599 -0.3506 -1.0482
11247SOL     OW35181   6.317   0.586   0.829 -0.0335  0.7380  1.1512
11247SOL    HW135182   6.397   0.621   0.791 -0.4635  1.4864  0.9173
11247SOL    HW235183   6.346   0.533   0.904  0.8162 -0.7473 -0.1780
11248SOL     OW35184   4.180   1.449   9.219 -0.3215 -0.3634  0.2902
11248SOL    HW135185   4.117   1.508   9.178 -1.2514 -1.2289  0.4454
11248SOL    HW235186   4.245   1.432   9.150  1.0721  2.3156  0.7937
11249SOL     OW35187   5.612   0.372   5.930  0.0327 -0.2253 -0.7093
11249SOL    HW135188   5.548   0.320   5.882 -0.4494  0.9559 -1.3949
11249SOL    HW235189   5.574   0.382   6.018 -0.3292 -0.2187 -0.8658
11250SOL     OW35190   4.265   5.121   1.387 -0.2239  0.0216  0.4918
11250SOL    HW135191   4.289   5.159   1.471  0.3590 -1.7199  1.1729
11250SOL    HW235192   4.169   5.112   1.392 -0.1727 -0.2855  1.0930
11251SOL     OW35193   0.021   2.190   5.451 -0.4754 -0.1093  0.2414
11251SOL    HW135194  -0.040   2.258   5.479  0.8721  0.5351  1.7892
11251SOL    HW235195   0.107   2.231   5.456  0.3178 -1.7130  0.5120
11252SOL     OW35196   4.657   2.546   3.861 -0.1569  0.6070 -0.2033
11252SOL    HW135197   4.616   2.463   3.836 -1.2980  1.2532 -0.5152
11252SOL    HW235198   4.692   2.581   3.780  0.8369  0.1859  0.0193
11253SOL     OW35199   1.370   1.480   9.248 -0.1393 -0.4953  0.2627
11253SOL    HW135200   1.416   1.546   9.197 -1.3036  0.3757  0.2843
11253SOL    HW235201   1.439   1.433   9.295  0.7362  0.5179  0.0248
11254SOL     OW35202   3.918   7.328   0.621  0.3705  0.6353 -0.5976
11254SOL    HW135203   3.905   7.266   0.693 -2.2733  1.1076 -0.5682
11254SOL    HW235204   3.956   7.275   0.551  1.6936 -0.1398  0.6666
11255SOL     OW35205   3.503   2.745  12.281 -0.0325  0.0022  0.4801
11255SOL    HW135206   3.422   2.788  12.251  0.2771  0.2005 -0.0761
11255SOL    HW235207   3.530   2.690  12.209 -0.1221 -0.7210  0.9897
11256SOL     OW35208   4.924   5.419   8.729  0.4580 -0.2553  0.0852
11256SOL    HW135209   4.852   5.393   8.788  1.0575 -0.7660  0.6107
11256SOL    HW235210   4.944   5.509   8.754  0.3222 -0.2742  0.2685
11257SOL     OW35211   1.450   7.565   3.144 -0.1444  0.6523  0.2039
11257SOL    HW135212   1.494   7.650   3.141  1.6800 -0.2568 -0.7061
11257SOL    HW235213   1.458   7.537   3.235  1.8390  0.2133 -0.0675
11258SOL     OW35214   4.654   7.537   6.965  0.7144 -0.2567  0.3926
11258SOL    HW135215   4.594   7.522   6.892  0.6115  0.4344  0.3245
11258SOL    HW235216   4.737   7.499   6.936  0.2648 -1.3884  0.5707
11259SOL     OW35217   3.208   3.544  11.514 -0.1354 -0.3435 -0.3293
11259SOL    HW135218   3.149   3.527  11.441  0.5815  1.1474 -1.2882
11259SOL    HW235219   3.289   3.498  11.491  0.3328  0.7161 -0.8339
11260SOL     OW35220   3.375   1.974   7.721 -0.3664 -0.4502  0.0865
11260SOL    HW135221   3.379   1.885   7.757  0.2479 -0.7546 -0.7091
11260SOL    HW235222   3.288   1.980   7.682  0.1544 -1.2997 -1.3004
11261SOL     OW35223   1.324   6.498   4.557 -0.2486  0.2241 -0.4115
11261SOL    HW135224   1.325   6.589   4.528  0.9336 -0.0405 -1.3031
11261SOL    HW235225   1.414   6.468   4.542 -0.4012 -0.8346  0.7053
11262SOL     OW35226   2.312   0.696   1.056 -0.0997 -0.2663  0.4280
11262SOL    HW135227   2.327   0.717   0.964  1.9246  0.6239  0.8991
11262SOL    HW235228   2.365   0.617   1.071 -0.1601 -0.2196  0.8912
11263SOL     OW35229   3.144   5.776  10.681  0.0895  0.5951 -0.3356
11263SOL    HW135230   3.168   5.818  10.763 -1.5372  0.0736  0.4533
11263SOL    HW235231   3.060   5.816  10.656 -0.1145 -0.2118 -1.0145
11264SOL     OW35232   4.344   5.341   3.730  0.0279 -0.0587  0.6327
11264SOL    HW135233   4.250   5.329   3.718 -0.0943  1.0447  0.3657
11264SOL    HW235234   4.376   5.370   3.644  0.3009  1.3003  1.1685
11265SOL     OW35235   1.173   7.344   5.609 -0.2360  0.4732  0.4865
11265SOL    HW135236   1.208   7.396   5.536  1.9162  0.3416  1.3573
11265SOL    HW235237   1.233   7.361   5.681 -0.8450 -1.3947  1.4901
11266SOL     OW35238   5.110   3.078   7.505  0.2333  0.3339 -0.0034
11266SOL    HW135239   5.177   3.013   7.525  0.8423  0.5146 -1.3084
11266SOL    HW235240   5.127   3.150   7.566  1.8711  0.7803 -0.9159
11267SOL     OW35241   3.268   7.431  10.597  0.5995 -0.1334  0.3727
11267SOL    HW135242   3.237   7.398  10.681  0.7603 -0.1989  0.4063
11267SOL    HW235243   3.301   7.519  10.616 -0.5707  0.3866  0.1386
11268SOL     OW35244   4.843   5.664   2.508 -0.0020  0.0337  0.1846
11268SOL    HW135245   4.769   5.680   2.567  1.6444  0.1682  2.3453
11268SOL    HW235246   4.883   5.749   2.496  0.2432 -0.1527 -0.3224
11269SOL     OW35247   1.407   0.568   4.585 -0.5534  0.3323 -0.2825
11269SOL    HW135248   1.456   0.636   4.631 -0.7271  0.3950 -0.1932
11269SOL    HW235249   1.418   0.590   4.492  0.6813 -0.3903 -0.3266
11270SOL     OW35250   1.488   1.569   6.006  0.3110 -0.5582 -0.3157
11270SOL    HW135251   1.517   1.521   5.929 -1.3799 -0.9003 -0.7666
11270SOL    HW235252   1.401   1.602   5.983  0.5754  0.9880  0.7376
11271SOL     OW35253   5.664   7.208   5.454 -0.6153 -0.4154  0.1359
11271SOL    HW135254   5.641   7.234   5.543 -0.9123  2.5363 -0.7203
11271SOL    HW235255   5.760   7.202   5.455 -0.4980  1.1493  0.3235
11272SOL     OW35256   1.845   6.015   7.746 -0.5986  0.2465 -0.2405
11272SOL    HW135257   1.895   5.964   7.682 -1.4757 -0.2374 -0.5525
11272SOL    HW235258   1.849   5.962   7.826 -0.8816  0.0499 -0.3558
11273SOL     OW35259   1.448   3.353   7.773 -0.2941 -0.1702  0.0258
11273SOL    HW135260   1.505   3.293   7.821  1.9268  3.2333  2.1648
11273SOL    HW235261   1.489   3.361   7.686  0.0335 -0.9011  0.1094
11274SOL     OW35262   1.191   3.311   7.809  0.9591 -0.4078  0.0523
11274SOL    HW135263   1.286   3.310   7.803  1.0297 -1.5767  0.9821
11274SOL    HW235264   1.166   3.219   7.811 -0.4212 -0.2021 -2.8233
11275SOL     OW35265   3.178   2.616   7.505 -0.5146 -0.3571 -0.1785
11275SOL    HW135266   3.269   2.610   7.532 -1.1227  0.3256  2.2421
11275SOL    HW235267   3.133   2.547   7.554 -1.5593  0.4166 -0.0016
11276SOL     OW35268   0.095   1.638   6.588  0.4818  0.1182  0.6318
11276SOL    HW135269   0.108   1.732   6.605  1.0628  0.3767 -1.0639
11276SOL    HW235270   0.178   1.597   6.613  0.0448 -0.0479  1.8854
11277SOL     OW35271   0.706   6.297   9.334  0.6124  0.3901 -0.3823
11277SOL    HW135272   0.802   6.299   9.330  0.6173  0.6518 -0.2263
11277SOL    HW235273   0.685   6.350   9.412  0.3466  0.2446 -0.3559
11278SOL     OW35274   0.118   0.253   5.246  0.0006 -0.0680  0.6266
11278SOL    HW135275   0.177   0.314   5.291 -0.8441  0.9734  0.3679
11278SOL    HW235276   0.134   0.169   5.288  0.7263  0.4573  1.4449
11279SOL     OW35277   6.640   3.559   4.745 -0.0712  0.5176  0.0642
11279SOL    HW135278   6.659   3.586   4.655  2.0497 -0.2259  0.2429
11279SOL    HW235279   6.614   3.467   4.738 -1.1963  0.8110  0.1124
11280SOL     OW35280   5.035   4.602   7.098 -0.7509 -0.5517 -0.1086
11280SOL    HW135281   4.969   4.670   7.089 -0.5258 -0.3683 -0.3974
11280SOL    HW235282   5.023   4.568   7.186  0.0360  0.8034  0.5385
11281SOL     OW35283   4.260   0.697   1.418  0.4026  0.1090  0.6827
11281SOL    HW135284   4.266   0.646   1.499  1.6601  1.5591  1.5423
11281SOL    HW235285   4.227   0.782   1.445  0.0148  0.3445 -0.4764
11282SOL     OW35286   1.481   7.631   5.191  0.2296  0.2859 -0.5244
11282SOL    HW135287   1.443   7.668   5.271 -0.2053  1.7901 -1.3846
11282SOL    HW235288   1.444   7.543   5.185 -0.7137  0.6092  0.2867
11283SOL     OW35289   1.246   0.389   8.936  0.3527 -0.3445  0.3274
11283SOL    HW135290   1.314   0.406   8.870  1.4785 -0.6293  1.3862
11283SOL    HW235291   1.213   0.476   8.958  0.9004 -0.1353  0.3451
11284SOL     OW35292   3.292   1.711   7.629  0.5806  0.1269 -0.4987
11284SOL    HW135293   3.222   1.690   7.691  1.5791 -1.4437  0.1396
11284SOL    HW235294   3.250   1.768   7.564 -0.5450  1.7515  1.5108
11285SOL     OW35295   1.268   1.312   7.315  0.3480 -0.5643 -0.7836
11285SOL    HW135296   1.202   1.321   7.246 -0.4870 -0.8571 -0.0450
11285SOL    HW235297   1.269   1.218   7.335 -1.1647 -0.2408  1.2148
11286SOL     OW35298   3.856   2.524   1.830 -0.1079 -0.1320 -0.0958
11286SOL    HW135299   3.856   2.565   1.916 -1.2346  0.3870 -0.3272
11286SOL    HW235300   3.941   2.481   1.824  0.9475  1.7989  0.3298
11287SOL     OW35301   0.938   4.742   2.643 -0.0581  0.3375 -0.2156
11287SOL    HW135302   1.016   4.784   2.680  1.4351 -1.4284 -1.2081
11287SOL    HW235303   0.917   4.672   2.704 -1.5338  1.3772  0.5586
11288SOL     OW35304   5.336   2.630   3.215 -0.2993  0.1750 -0.1680
11288SOL    HW135305   5.361   2.694   3.149  1.6344 -0.8871 -0.5211
11288SOL    HW235306   5.298   2.683   3.286  1.5600  1.7822 -0.2837
11289SOL     OW35307   2.358   4.218  11.695  0.2668  0.3171  0.2188
11289SOL    HW135308   2.447   4.244  11.718 -0.1445  1.5468  0.4666
11289SOL    HW235309   2.348   4.131  11.733  1.2592  0.2866  0.4384
11290SOL     OW35310   4.495   6.753   6.860  0.3619  0.1293 -0.4599
11290SOL    HW135311   4.451   6.721   6.938 -0.7337  0.0549 -1.0850
11290SOL    HW235312   4.588   6.738   6.876 -0.0292 -2.9508 -0.5113
11291SOL     OW35313   7.194   1.865   0.337 -0.1508  0.4847 -0.2034
11291SOL    HW135314   7.279   1.822   0.340 -0.8170 -0.9153 -0.2352
11291SOL    HW235315   7.143   1.822   0.406 -0.3893  2.3457  0.8307
11292SOL     OW35316   4.470   7.285   0.930  0.4958 -0.4489  0.1359
11292SOL    HW135317   4.478   7.316   1.020 -0.6911  0.1869  0.0313
11292SOL    HW235318   4.389   7.324   0.898  0.4855 -1.3265 -0.9497
11293SOL     OW35319   0.885   3.465   0.095  0.2787  0.2029  0.1942
11293SOL    HW135320   0.920   3.409   0.164  1.7260  1.2957  0.3851
11293SOL    HW235321   0.927   3.434   0.015 -0.8726 -0.6086 -0.1314
11294SOL     OW35322   1.550   3.470   4.663  0.0888  1.0328  0.0652
11294SOL    HW135323   1.582   3.557   4.638 -2.6225  1.1359 -4.1145
11294SOL    HW235324   1.483   3.487   4.728  1.2077  1.7521  1.0810
11295SOL     OW35325   6.852   4.472   2.705  0.1976  0.6092 -0.0651
11295SOL    HW135326   6.783   4.413   2.673 -2.7132  3.3883  0.5407
11295SOL    HW235327   6.880   4.434   2.788 -1.0436 -0.3070 -0.0353
11296SOL     OW35328   4.871   4.916   2.071  0.1344  0.0389 -0.0456
11296SOL    HW135329   4.906   5.005   2.078 -3.1160  1.3357  1.5282
11296SOL    HW235330   4.794   4.925   2.016 -1.0664 -1.4913  1.2936
11297SOL     OW35331   5.979   2.729   7.358 -0.2032 -0.7543 -0.5798
11297SOL    HW135332   5.971   2.747   7.264 -0.7426 -0.2917 -0.4512
11297SOL    HW235333   5.906   2.671   7.378  0.5187 -1.7207 -0.6412
11298SOL     OW35334   4.136   6.199   7.246  0.7588 -0.0418  0.1305
11298SOL    HW135335   4.087   6.117   7.236  0.5030 -0.1827  2.2285
11298SOL    HW235336   4.076   6.257   7.294  2.1640  0.1969  1.6597
11299SOL     OW35337   2.510   6.196  10.520 -0.6401  0.2752 -0.1851
11299SOL    HW135338   2.434   6.230  10.472  0.3076  0.4610 -1.6431
11299SOL    HW235339   2.511   6.245  10.602 -1.6123  0.8646 -0.5065
11300SOL     OW35340   4.898   1.387   2.626  0.1014 -0.0518 -0.4307
11300SOL    HW135341   4.950   1.466   2.615  0.8064 -0.4049  0.2839
11300SOL    HW235342   4.816   1.405   2.579  0.9015  0.4688 -1.6891
11301SOL     OW35343   1.969   6.972   1.948 -0.4385 -0.1059 -0.4982
11301SOL    HW135344   2.031   7.024   1.999 -0.3974 -1.0276  0.4262
11301SOL    HW235345   1.918   7.036   1.900  0.0133  0.7591  0.1486
11302SOL     OW35346   7.112   6.715   2.993 -0.2944  0.5769  0.2953
11302SOL    HW135347   7.161   6.749   3.068 -1.2969  1.2026  0.6799
11302SOL    HW235348   7.036   6.671   3.032 -0.5309  0.4219 -0.3315
11303SOL     OW35349   5.454   4.312   9.453 -0.2816 -0.0379 -0.4478
11303SOL    HW135350   5.497   4.254   9.390 -0.2291  0.4699 -0.8851
11303SOL    HW235351   5.525   4.343   9.509  0.0759  1.3932 -1.6347
11304SOL     OW35352   3.045   4.045   0.663 -0.1833 -0.2782 -0.8846
11304SOL    HW135353   3.028   3.974   0.600 -0.1395 -0.0117 -1.1977
11304SOL    HW235354   3.111   4.008   0.722 -0.4983 -0.6605 -0.7694
11305SOL     OW35355   6.881   7.431   9.277  0.4205  0.0741  0.1917
11305SOL    HW135356   6.889   7.523   9.255  1.8397 -0.5581 -2.3456
11305SOL    HW235357   6.834   7.392   9.203  0.7448 -1.3904  0.7156
11306SOL     OW35358   5.155   7.403   2.433 -0.2768  0.1801  0.0123
11306SOL    HW135359   5.223   7.421   2.497 -0.9032  0.0463  0.7350
11306SOL    HW235360   5.088   7.355   2.481 -0.3352 -0.7732 -0.9817
11307SOL     OW35361   1.289   5.047   8.511 -0.5117  0.4025  0.0619
11307SOL    HW135362   1.230   5.053   8.436 -1.2213  2.2218  0.7278
11307SOL    HW235363   1.318   5.136   8.527 -0.9540  0.1929  2.4043
11308SOL     OW35364   7.163   5.539  10.575  0.2901 -0.5344 -0.1050
11308SOL    HW135365   7.185   5.541  10.482  1.5615  2.5922  0.1385
11308SOL    HW235366   7.231   5.484  10.615  0.6660 -0.6032 -0.8309
11309SOL     OW35367   2.240   4.992  11.870 -0.1297 -0.0675 -0.1318
11309SOL    HW135368   2.321   5.036  11.845 -0.1597 -0.0184 -0.1417
11309SOL    HW235369   2.170   5.044  11.829 -0.1259 -0.5182 -0.7254
11310SOL     OW35370   7.522   2.932   2.726 -0.5501 -0.2855  0.4771
11310SOL    HW135371   7.473   2.857   2.761 -0.3216 -0.4442  0.4543
11310SOL    HW235372   7.556   2.976   2.803  0.5642 -1.0423  0.4419
11311SOL     OW35373   2.016   2.044   1.611  0.5484  0.4383  0.3399
11311SOL    HW135374   2.063   1.986   1.552  0.4467  0.8226 -0.1325
11311SOL    HW235375   2.081   2.071   1.676  0.9187  0.7552 -0.1500
11312SOL     OW35376   4.514   6.440   8.694 -0.4365  0.2542  0.1235
11312SOL    HW135377   4.550   6.374   8.753  1.5206  2.2651  1.3394
11312SOL    HW235378   4.578   6.447   8.624 -0.5462  0.9449  0.0860
11313SOL     OW35379   4.972   0.676   1.919 -0.0566  0.3031 -0.1884
11313SOL    HW135380   4.922   0.757   1.930  0.1191  0.6094 -1.5198
11313SOL    HW235381   5.044   0.701   1.861 -1.1484 -1.2643 -2.3154
11314SOL     OW35382   4.916   4.469   2.059 -0.5293  0.4143 -0.0721
11314SOL    HW135383   4.913   4.411   1.982  1.0975  0.8501 -0.5118
11314SOL    HW235384   4.955   4.415   2.128 -0.1845  0.5953 -0.1216
11315SOL     OW35385   4.422   7.762  11.875 -0.2437  0.0321 -0.2442
11315SOL    HW135386   4.477   7.827  11.918  1.1567 -0.8790 -0.6022
11315SOL    HW235387   4.346   7.753  11.934  1.3452 -0.7636  1.8006
11316SOL     OW35388   1.531   3.000   4.007  0.5911 -0.1843 -0.3136
11316SOL    HW135389   1.548   3.089   3.977  0.3316 -0.5776 -1.7000
11316SOL    HW235390   1.534   2.947   3.927  2.0617 -1.6289  0.6272
11317SOL     OW35391   1.864   5.228  11.386  0.3338  0.3436  0.1887
11317SOL    HW135392   1.798   5.192  11.327  0.7523 -0.0613 -0.0348
11317SOL    HW235393   1.813   5.271  11.455 -0.1731 -0.5638  0.3944
11318SOL     OW35394   5.009   0.422   0.506 -0.1194 -0.1832  0.0538
11318SOL    HW135395   4.924   0.378   0.502 -1.3350  1.6756  2.5249
11318SOL    HW235396   5.043   0.400   0.593  0.9444  0.7737 -0.0971
11319SOL     OW35397   0.288   1.458   1.429 -0.0430 -0.6515 -0.3381
11319SOL    HW135398   0.274   1.545   1.393  3.0607  0.8800  1.6345
11319SOL    HW235399   0.236   1.456   1.509  1.5826  0.3700  0.8003
11320SOL     OW35400   4.278   0.389   0.733 -0.7462  0.2899 -0.4034
11320SOL    HW135401   4.265   0.414   0.642 -0.5229 -0.7855 -0.7448
11320SOL    HW235402   4.190   0.371   0.766 -1.1706  3.3286  0.4465
11321SOL     OW35403   7.800   6.389  10.610 -0.2504  0.1524 -0.3845
11321SOL    HW135404   7.827   6.452  10.543 -0.0383  0.2681 -0.1907
11321SOL    HW235405   7.882   6.351  10.641 -0.3860 -0.3312 -0.6051
11322SOL     OW35406   2.137   6.032   3.903 -0.1665  0.5896 -0.0207
11322SOL    HW135407   2.162   6.102   3.843 -1.2412  0.6291 -0.4499
11322SOL    HW235408   2.041   6.035   3.904 -0.2913 -1.6261 -0.9715
11323SOL     OW35409   0.602   6.521   3.785  0.0664  0.1746  0.7938
11323SOL    HW135410   0.665   6.457   3.753 -1.4861 -0.8617 -0.3804
11323SOL    HW235411   0.557   6.551   3.706 -2.3865 -0.7841  1.7275
11324SOL     OW35412   4.629   5.526   9.541 -0.0788  0.1906  0.1486
11324SOL    HW135413   4.573   5.599   9.515 -0.3519  0.4869  1.4940
11324SOL    HW235414   4.573   5.449   9.530  0.7593 -0.1174 -3.0068
11325SOL     OW35415   7.716   6.619   7.589  1.1524  0.5919  0.2645
11325SOL    HW135416   7.670   6.657   7.514 -1.2337 -2.4024  0.0237
11325SOL    HW235417   7.690   6.673   7.664 -0.4618  0.7000 -0.3517
11326SOL     OW35418   2.186   1.195   7.042 -0.1996 -0.3378  0.2114
11326SOL    HW135419   2.268   1.214   6.995 -0.1797 -2.1044 -0.5679
11326SOL    HW235420   2.214   1.154   7.123 -0.3041 -0.0559  0.3920
11327SOL     OW35421   2.295   7.888   5.454 -0.3490 -0.3948  0.1856
11327SOL    HW135422   2.236   7.912   5.382  0.1992  2.1390  0.4957
11327SOL    HW235423   2.254   7.924   5.532 -0.2836 -2.0041  1.0099
11328SOL     OW35424   1.439   1.989   9.883 -0.3210 -0.0746 -0.4540
11328SOL    HW135425   1.527   1.954   9.896 -0.5202 -0.5135 -0.2913
11328SOL    HW235426   1.409   2.012   9.972 -1.0934 -1.6652 -0.2747
11329SOL     OW35427   3.104   0.928   2.502 -0.7868 -0.4010  0.9988
11329SOL    HW135428   3.170   0.881   2.553 -1.5984  0.0194  2.5170
11329SOL    HW235429   3.025   0.873   2.507 -0.8420 -0.4286  0.0387
11330SOL     OW35430   4.517   2.000   9.219  0.1459 -0.9544 -0.0101
11330SOL    HW135431   4.585   2.066   9.219 -0.6013 -0.1618  0.1659
11330SOL    HW235432   4.545   1.935   9.284  0.0293  0.1028  1.1223
11331SOL     OW35433   0.158   3.609   4.358  0.0838 -0.5280 -0.3313
11331SOL    HW135434   0.195   3.696   4.372 -3.3155  1.3990 -2.0520
11331SOL    HW235435   0.202   3.576   4.280 -0.9068  1.2193 -1.7000
11332SOL     OW35436   5.128   2.141   1.495 -0.0874  0.0712  0.2677
11332SOL    HW135437   5.034   2.159   1.493  0.0304  0.7264  0.1990
11332SOL    HW235438   5.168   2.227   1.512  0.5479  0.0235 -0.8478
11333SOL     OW35439   3.975   0.847   1.250  0.1328 -0.0050  0.2731
11333SOL    HW135440   4.026   0.766   1.254 -1.5010 -1.0405  0.9019
11333SOL    HW235441   3.929   0.851   1.333 -1.4682  0.4464 -0.5944
11334SOL     OW35442   1.089   3.317   3.331 -0.1087 -0.5385 -0.6972
11334SOL    HW135443   1.176   3.280   3.320  1.2839  2.3383 -0.3043
11334SOL    HW235444   1.072   3.312   3.426  0.9966  1.5817 -0.3451
11335SOL     OW35445   4.357   0.601   7.183 -0.1202  0.3638 -0.0437
11335SOL    HW135446   4.442   0.631   7.150  1.3724 -0.9109  2.3638
11335SOL    HW235447   4.350   0.511   7.153 -1.0364  0.7028 -0.8961
11336SOL     OW35448   3.110   4.504  10.775 -0.4577  0.0601  0.2786
11336SOL    HW135449   3.030   4.556  10.786  0.9620  2.2630  0.7404
11336SOL    HW235450   3.181   4.568  10.775  1.2241 -1.6412 -1.9630
11337SOL     OW35451   5.956   6.720   3.257 -0.2193  0.0278  0.2331
11337SOL    HW135452   6.032   6.738   3.311  0.5576 -0.9164 -0.5186
11337SOL    HW235453   5.979   6.643   3.206 -2.1470 -1.0562  0.8937
11338SOL     OW35454   4.691   6.805   7.502  0.3028  0.1152  0.6561
11338SOL    HW135455   4.759   6.772   7.443  1.3220 -0.8003  2.2543
11338SOL    HW235456   4.658   6.884   7.459  0.6182 -0.7907 -1.3565
11339SOL     OW35457   5.692   7.180   2.320  0.0427 -0.3142 -0.5554
11339SOL    HW135458   5.743   7.261   2.330  0.3667 -0.6199  0.4348
11339SOL    HW235459   5.687   7.166   2.226  0.2741  0.6831 -0.7223
11340SOL     OW35460   6.100   5.126   6.702 -0.4250 -0.4204  0.5494
11340SOL    HW135461   6.176   5.069   6.693 -0.2312  0.1547 -2.6577
11340SOL    HW235462   6.123   5.184   6.775  1.0957 -1.8451  1.2840
11341SOL     OW35463   2.708   0.883   2.155  0.1621  0.0000 -0.8798
11341SOL    HW135464   2.777   0.863   2.092  0.5057 -1.6797 -0.0337
11341SOL    HW235465   2.726   0.973   2.182  0.9203  0.2106 -2.0326
11342SOL     OW35466   7.947   4.298   1.419 -0.1140 -0.7259  0.4916
11342SOL    HW135467   7.907   4.262   1.339  1.0727 -1.0174  0.0057
11342SOL    HW235468   8.031   4.334   1.389 -0.7230  1.4181  1.1805
11343SOL     OW35469   5.595   4.920   7.835 -0.1701 -0.0208  0.3226
11343SOL    HW135470   5.511   4.882   7.859 -1.6462  2.4841 -0.4925
11343SOL    HW235471   5.623   4.969   7.912 -0.9743  1.5271 -0.3191
11344SOL     OW35472   4.827   0.927  11.605 -0.0116  0.0352  0.1805
11344SOL    HW135473   4.781   0.933  11.521 -0.5939 -3.0314  0.1740
11344SOL    HW235474   4.765   0.962  11.669 -0.6908 -0.1923 -0.3391
11345SOL     OW35475   4.719   7.196   9.440  0.3189 -0.2260 -0.4882
11345SOL    HW135476   4.788   7.131   9.426  0.3702 -0.0465 -1.0701
11345SOL    HW235477   4.766   7.277   9.459  0.2726 -0.0875 -0.9566
11346SOL     OW35478   4.752   2.325   6.279  0.2410  0.2164  0.2557
11346SOL    HW135479   4.806   2.256   6.242  1.0494  1.4079 -0.8433
11346SOL    HW235480   4.734   2.384   6.206  1.6840  2.5153  1.6163
11347SOL     OW35481   4.036   0.987  10.496 -0.6169  0.3955  0.1408
11347SOL    HW135482   3.968   0.923  10.515  0.4401 -0.1658  2.4312
11347SOL    HW235483   4.063   1.020  10.583  3.4114 -0.9397 -0.4023
11348SOL     OW35484   0.055   2.052   0.863  0.2486 -0.0988 -0.0364
11348SOL    HW135485   0.021   1.965   0.883  0.8933 -0.1773  0.7976
11348SOL    HW235486   0.004   2.111   0.919  1.0044 -0.1515  0.7471
11349SOL     OW35487   1.574   1.182   1.549 -0.4442  1.0395 -0.3510
11349SOL    HW135488   1.646   1.204   1.608  0.7312  0.1490 -1.3754
11349SOL    HW235489   1.515   1.256   1.554  0.1755  1.4654  1.0937
11350SOL     OW35490   4.361   4.380   6.376 -0.0628  0.3492 -0.5537
11350SOL    HW135491   4.433   4.440   6.356  1.1274 -1.0118 -0.5066
11350SOL    HW235492   4.337   4.341   6.291  1.2584 -1.3361 -0.2060
11351SOL     OW35493   6.008   4.128   5.097 -0.2126  0.2031  0.4160
11351SOL    HW135494   5.945   4.194   5.127 -1.0037  0.1785 -1.0894
11351SOL    HW235495   5.980   4.107   5.008  2.4250  0.8434 -0.6853
11352SOL     OW35496   6.217   2.408   5.205 -0.7154 -0.3505 -0.4706
11352SOL    HW135497   6.156   2.476   5.233 -2.2818 -1.1886 -1.6832
11352SOL    HW235498   6.250   2.439   5.120  1.8869  0.8677  0.8631
11353SOL     OW35499   0.229   0.233   9.795 -0.1561 -0.3495 -0.1654
11353SOL    HW135500   0.323   0.254   9.803 -0.1854 -0.4129  0.3731
11353SOL    HW235501   0.186   0.296   9.853 -0.2837 -1.5437  1.0835
11354SOL     OW35502   6.816   6.085   9.951 -0.1026 -0.1565 -0.3409
11354SOL    HW135503   6.775   6.168   9.976  0.6426  0.2193 -0.3455
11354SOL    HW235504   6.876   6.109   9.880  1.4538 -0.3802  0.8360
11355SOL     OW35505   6.341   6.770  10.277  0.2549 -0.4191 -0.3597
11355SOL    HW135506   6.263   6.761  10.222  0.5370  1.8116 -1.2038
11355SOL    HW235507   6.343   6.688  10.328 -2.5224 -0.6482 -0.4224
11356SOL     OW35508   0.834   7.183  10.381  0.4734 -0.2048 -0.1859
11356SOL    HW135509   0.912   7.229  10.348  0.5908 -0.9920 -1.0562
11356SOL    HW235510   0.772   7.188  10.308  1.1206 -2.9370 -1.0440
11357SOL     OW35511   6.812   7.826   7.973 -0.3828  0.6391  0.4509
11357SOL    HW135512   6.811   7.886   7.899 -1.2790 -0.0028 -0.0797
11357SOL    HW235513   6.903   7.828   8.004  0.1350  0.5607 -0.9643
11358SOL     OW35514   4.323   0.844   5.300 -0.6815 -0.2396  0.6811
11358SOL    HW135515   4.289   0.898   5.228  1.1520 -1.0126 -0.8370
11358SOL    HW235516   4.348   0.908   5.367 -1.8466  0.5448  0.3991
11359SOL     OW35517   3.013   4.823   7.196 -0.3551 -0.0189 -0.1418
11359SOL    HW135518   3.085   4.878   7.165 -1.2420  0.6282 -1.1288
11359SOL    HW235519   2.937   4.853   7.146 -0.8873 -2.1165 -0.6906
11360SOL     OW35520   5.528   7.773   2.332 -0.5640 -0.3083 -0.0008
11360SOL    HW135521   5.495   7.863   2.339  1.0379  0.3310 -0.0575
11360SOL    HW235522   5.450   7.719   2.322 -1.5110  1.2108 -1.3311
11361SOL     OW35523   5.901   6.540  12.134 -0.1693  0.0727 -0.0492
11361SOL    HW135524   5.896   6.515  12.227  0.9275  0.4580  0.1256
11361SOL    HW235525   5.888   6.634  12.133 -1.1911 -0.0602 -0.4022
11362SOL     OW35526   0.245   3.597   9.801  0.7939 -0.3320 -0.5279
11362SOL    HW135527   0.198   3.680   9.810  1.0990 -0.0833 -1.1235
11362SOL    HW235528   0.207   3.557   9.722 -1.8834 -2.4698  1.6407
11363SOL     OW35529   2.244   7.432   9.767 -0.2580  0.3072  0.3085
11363SOL    HW135530   2.251   7.434   9.862  2.9523  0.9693  0.1621
11363SOL    HW235531   2.230   7.339   9.746 -0.7650  0.1272  1.3761
11364SOL     OW35532   0.009   0.634   8.029 -0.3722  0.5452  0.1143
11364SOL    HW135533   0.045   0.650   7.941  0.7671 -0.2955  0.3984
11364SOL    HW235534  -0.082   0.662   8.023 -1.1071 -1.8928 -2.1228
11365SOL     OW35535   0.508   5.107  11.871 -0.2907 -0.4192 -0.2977
11365SOL    HW135536   0.577   5.171  11.852  0.3741 -0.7880  0.7871
11365SOL    HW235537   0.524   5.081  11.962 -0.8698 -1.7427 -0.5582
11366SOL     OW35538   1.370   0.198   3.812 -0.9022  0.2231  0.1192
11366SOL    HW135539   1.350   0.155   3.895 -1.1133  1.5594  0.7778
11366SOL    HW235540   1.352   0.291   3.827 -2.7086  0.3181 -1.9282
11367SOL     OW35541   6.759   1.880   0.941 -0.0872 -0.0981 -0.6235
11367SOL    HW135542   6.822   1.928   0.995  0.3174  0.1696 -1.3236
11367SOL    HW235543   6.693   1.946   0.918 -1.3563 -0.6546  1.1569
11368SOL     OW35544   0.124   7.442   0.608  0.3980 -0.6060 -0.1387
11368SOL    HW135545   0.178   7.363   0.602  0.8456 -0.2553 -1.1015
11368SOL    HW235546   0.115   7.459   0.701  0.1411 -1.8922  0.0912
11369SOL     OW35547   2.617   5.710   5.972 -0.3138 -0.1431  0.6582
11369SOL    HW135548   2.526   5.692   5.993 -0.9943 -0.7749 -2.3672
11369SOL    HW235549   2.637   5.790   6.020 -2.7153  0.4983  0.7202
11370SOL     OW35550   5.339   5.337   0.009 -0.1004  0.1382  0.3660
11370SOL    HW135551   5.335   5.319   0.103 -1.6798  1.4946  0.5991
11370SOL    HW235552   5.250   5.361  -0.015  0.1328 -0.7855 -1.6406
11371SOL     OW35553   7.871   7.729  12.266  0.1905  0.0782  0.2022
11371SOL    HW135554   7.827   7.661  12.214 -0.3494 -0.0304  0.7898
11371SOL    HW235555   7.811   7.746  12.338  1.1188 -0.0760  1.0248
11372SOL     OW35556   0.761   0.030   2.247 -0.3659 -0.2829  0.9429
11372SOL    HW135557   0.765   0.124   2.268  1.4479 -0.1367  0.1536
11372SOL    HW235558   0.790   0.025   2.156 -0.9445 -1.5806  0.8132
11373SOL     OW35559   3.551   2.410   3.933 -0.1770  0.2734  0.5313
11373SOL    HW135560   3.636   2.416   3.978  0.5068  2.4957 -0.8570
11373SOL    HW235561   3.512   2.497   3.946 -0.9381  0.2371 -1.2302
11374SOL     OW35562   0.139   4.261   3.075 -0.1238 -0.1751 -0.2299
11374SOL    HW135563   0.078   4.214   3.131  0.6939  1.3337  2.1020
11374SOL    HW235564   0.223   4.215   3.087  0.4082  1.0869  1.1069
11375SOL     OW35565   4.018   1.072   1.967  0.4974  0.2868 -0.4800
11375SOL    HW135566   3.958   0.998   1.974 -0.4341  1.1533  2.2560
11375SOL    HW235567   3.985   1.123   1.893 -1.0374 -0.2489 -0.2115
11376SOL     OW35568   3.896   6.099   7.949 -0.4047  0.2561 -0.5872
11376SOL    HW135569   3.970   6.047   7.916 -0.2400  0.9341 -1.3316
11376SOL    HW235570   3.906   6.097   8.044  0.8284  0.6706 -0.6842
11377SOL     OW35571   5.118   0.463   7.845 -0.1869  0.0747  0.1996
11377SOL    HW135572   5.199   0.467   7.897 -0.9612  0.5289  1.4242
11377SOL    HW235573   5.110   0.371   7.820 -0.6525 -0.5462  2.3810
11378SOL     OW35574   7.770   3.174   5.139  0.0564 -0.1648 -0.2406
11378SOL    HW135575   7.794   3.224   5.217 -2.2199 -2.0687  1.8206
11378SOL    HW235576   7.685   3.209   5.113  0.8234  0.5204 -2.0688
11379SOL     OW35577   5.711   6.169   5.410 -0.5226 -0.6661  0.1734
11379SOL    HW135578   5.660   6.150   5.332  0.7647  1.4416 -1.2907
11379SOL    HW235579   5.654   6.224   5.464 -0.5598 -0.0591 -0.4714
11380SOL     OW35580   5.457   0.788   5.516 -0.1329 -0.5762  0.2795
11380SOL    HW135581   5.438   0.750   5.431  0.6045 -0.3624  0.0054
11380SOL    HW235582   5.478   0.713   5.572  1.4022 -0.6042 -0.2824
11381SOL     OW35583   4.270   7.502   0.823  0.4103 -0.4787 -0.5818
11381SOL    HW135584   4.294   7.585   0.864 -0.0994 -0.4034 -0.4213
11381SOL    HW235585   4.331   7.492   0.750  0.1969  0.2588 -0.8772
11382SOL     OW35586   7.487   3.099  12.338  0.3218  0.0618 -0.3099
11382SOL    HW135587   7.481   3.007  12.366  2.3005 -0.7996 -2.4130
11382SOL    HW235588   7.460   3.097  12.246  2.6408  1.1279 -1.0751
11383SOL     OW35589   2.199   7.422   6.144  0.0691 -0.4813  0.1190
11383SOL    HW135590   2.287   7.385   6.156 -0.0045 -0.7796 -0.2634
11383SOL    HW235591   2.145   7.348   6.119 -0.5221 -0.4934  1.3659
11384SOL     OW35592   7.632   3.229   6.600  0.3613  0.0162  0.5593
11384SOL    HW135593   7.584   3.152   6.630 -0.9042  0.8250  0.6571
11384SOL    HW235594   7.673   3.202   6.518 -2.6699  0.1284 -1.1098
11385SOL     OW35595   5.121   0.074   3.064 -0.0535  0.9656  0.4916
11385SOL    HW135596   5.132  -0.018   3.041 -0.1649  0.9333  0.5631
11385SOL    HW235597   5.036   0.099   3.026  0.2906  1.2269 -0.1108
11386SOL     OW35598   0.399   1.617   6.616 -0.1019 -0.2283 -0.1207
11386SOL    HW135599   0.488   1.582   6.608 -0.4626 -1.3653  0.6567
11386SOL    HW235600   0.411   1.712   6.613  1.1459 -0.3607  0.0479
11387SOL     OW35601   7.177   5.930   8.796 -0.7321  0.2373 -0.4644
11387SOL    HW135602   7.197   5.844   8.832 -0.6814  0.6100  0.4279
11387SOL    HW235603   7.083   5.941   8.809 -0.6075  0.6422  0.2044
11388SOL     OW35604   2.277   7.091   3.768 -0.1429  0.4040 -0.2485
11388SOL    HW135605   2.249   7.061   3.682  0.4745 -0.5009 -0.1407
11388SOL    HW235606   2.257   7.018   3.827  0.1073  0.7360  0.2566
11389SOL     OW35607   7.514   7.618   0.985 -0.7044  0.1035  0.3005
11389SOL    HW135608   7.561   7.597   1.065 -0.8656 -0.5834  0.2162
11389SOL    HW235609   7.456   7.544   0.970  0.2922 -0.4294 -1.1925
11390SOL     OW35610   1.648   1.620   4.265  0.2633 -0.5064 -0.2896
11390SOL    HW135611   1.609   1.701   4.296  0.0775 -0.7893  0.2246
11390SOL    HW235612   1.698   1.586   4.339  0.0857 -1.0157 -0.3918
11391SOL     OW35613   6.138   0.525   9.761  0.3915  0.0277  0.0440
11391SOL    HW135614   6.102   0.483   9.683  0.4781 -3.7365  1.7927
11391SOL    HW235615   6.064   0.531   9.821  1.3130 -2.4873  1.6037
11392SOL     OW35616   6.857   7.284  11.288  0.2930 -0.3236 -0.1268
11392SOL    HW135617   6.829   7.348  11.223 -0.2937 -1.8390 -1.4190
11392SOL    HW235618   6.926   7.233  11.245  0.8647 -0.4885  0.9305
11393SOL     OW35619   7.576   0.337  11.864  0.0119  0.2021  0.0074
11393SOL    HW135620   7.599   0.388  11.942  1.5745  1.1208 -0.9954
11393SOL    HW235621   7.569   0.247  11.895  0.2619  0.5990  1.2674
11394SOL     OW35622   3.794   1.550   3.696  0.6379 -0.2825  0.8543
11394SOL    HW135623   3.836   1.632   3.672 -1.9489  0.6644 -0.8705
11394SOL    HW235624   3.833   1.485   3.638  0.1095  0.4888 -0.4133
11395SOL     OW35625   3.553   0.845   7.324  0.1200 -0.3944  0.0323
11395SOL    HW135626   3.466   0.812   7.301  0.6322 -0.3782 -2.1170
11395SOL    HW235627   3.610   0.768   7.323  0.0925 -0.5011  1.9775
11396SOL     OW35628   0.297   0.287   8.494  0.1736  0.3020 -0.2580
11396SOL    HW135629   0.220   0.320   8.539  0.2467  1.4204 -0.9142
11396SOL    HW235630   0.316   0.352   8.427  1.9530  0.2788  0.1622
11397SOL     OW35631   2.860   2.654   5.691  0.4320  0.4626 -0.4949
11397SOL    HW135632   2.848   2.747   5.672 -0.4563  0.7142  1.1048
11397SOL    HW235633   2.910   2.653   5.772  1.5458 -0.4972 -1.1680
11398SOL     OW35634   2.903   0.166  10.342 -0.2411 -0.0908 -0.4523
11398SOL    HW135635   2.905   0.214  10.424 -1.7465  0.5750 -0.7698
11398SOL    HW235636   2.928   0.077  10.365  1.1588  0.4873  0.3957
11399SOL     OW35637   4.226   1.385   8.738  0.3357 -0.4305  0.1043
11399SOL    HW135638   4.172   1.433   8.801  1.4361  1.6568 -0.4409
11399SOL    HW235639   4.175   1.307   8.717 -2.0583  0.9832  0.2817
11400SOL     OW35640   3.585   2.857   1.965 -0.1965 -0.1229  0.6934
11400SOL    HW135641   3.632   2.940   1.981 -2.0097  2.0690 -3.6825
11400SOL    HW235642   3.624   2.824   1.884 -2.7741 -0.8664 -0.3153
11401SOL     OW35643   3.473   6.106   4.448 -0.0942 -0.8897  0.6546
11401SOL    HW135644   3.465   6.151   4.364  0.8521  0.2977  1.1684
11401SOL    HW235645   3.525   6.028   4.429 -0.0027 -0.7026  0.1157
11402SOL     OW35646   6.800   0.895   8.578  0.4400 -0.4390  0.3762
11402SOL    HW135647   6.835   0.826   8.634  1.3135 -0.3983 -0.0982
11402SOL    HW235648   6.748   0.950   8.637  1.3461 -0.3983  1.1568
11403SOL     OW35649   1.173   5.089   7.185  0.7148 -0.1717  0.1693
11403SOL    HW135650   1.127   5.041   7.254  0.7804  1.5586  1.4728
11403SOL    HW235651   1.223   5.156   7.232 -0.1861  1.8647 -1.6185
11404SOL     OW35652   1.379   4.604   5.725  0.4044 -0.5684  0.6635
11404SOL    HW135653   1.295   4.569   5.756  0.2360 -0.2606  0.5558
11404SOL    HW235654   1.430   4.526   5.704  0.9902 -0.8349  2.8997
11405SOL     OW35655   0.350   6.128   9.980 -0.0629  0.0797 -0.0495
11405SOL    HW135656   0.325   6.191   9.912 -1.2713  2.0761  2.1202
11405SOL    HW235657   0.298   6.049   9.959 -0.5740  0.7123 -1.2926
11406SOL     OW35658   4.721   0.526   1.273 -0.1627 -0.0751 -0.5058
11406SOL    HW135659   4.647   0.469   1.296  0.4273 -0.3443  0.8076
11406SOL    HW235660   4.789   0.504   1.336  0.4688  1.3157 -0.6636
11407SOL     OW35661   4.544   4.682   6.780 -0.5494  0.1863  0.1116
11407SOL    HW135662   4.541   4.767   6.825  0.3934  1.0030 -1.2609
11407SOL    HW235663   4.632   4.649   6.798 -0.0086  0.7131 -1.3799
11408SOL     OW35664   2.717   7.477   5.274  0.4510  0.0522 -0.5233
11408SOL    HW135665   2.702   7.392   5.231  2.1579 -0.9118  0.6550
11408SOL    HW235666   2.631   7.503   5.306 -0.3093 -0.6788 -1.8494
11409SOL     OW35667   3.050   1.472   9.159  0.1566  0.4279 -0.1461
11409SOL    HW135668   2.983   1.418   9.117 -0.9779  0.4026  1.5847
11409SOL    HW235669   3.042   1.557   9.117 -0.8841  0.3764 -0.0932
11410SOL     OW35670   7.488   2.320   5.644 -0.2282  0.2205  0.4151
11410SOL    HW135671   7.506   2.240   5.693  1.1124  0.7422  0.8525
11410SOL    HW235672   7.453   2.291   5.560  2.4115 -0.9781 -0.3887
11411SOL     OW35673   0.420   3.399   0.570 -0.0924  0.1108  0.1720
11411SOL    HW135674   0.359   3.468   0.544 -1.2300 -0.5916  0.8763
11411SOL    HW235675   0.390   3.371   0.657  0.9775 -0.5522  0.3542
11412SOL     OW35676   6.800   3.286   3.914 -0.7593 -0.1771  0.4382
11412SOL    HW135677   6.870   3.221   3.910  0.1301  0.7161  1.1348
11412SOL    HW235678   6.744   3.257   3.986 -1.5270 -1.2721 -0.5596
11413SOL     OW35679   4.639   2.951   5.107 -0.1721  0.3274  0.8316
11413SOL    HW135680   4.596   2.905   5.034 -0.0548  1.4587  0.0204
11413SOL    HW235681   4.570   2.963   5.171 -0.7879  1.0775  0.0471
11414SOL     OW35682   7.314   6.014   0.528  0.3927 -0.1047 -0.0926
11414SOL    HW135683   7.292   5.954   0.599 -0.2438 -0.7258 -0.7997
11414SOL    HW235684   7.409   6.005   0.518  0.2803 -1.2088 -0.3572
11415SOL     OW35685   1.675   7.245   9.693 -0.1179  0.3783  0.3775
11415SOL    HW135686   1.605   7.240   9.628  0.0491 -2.4085  0.3109
11415SOL    HW235687   1.755   7.244   9.641  0.0057  0.9716  0.5513
11416SOL     OW35688   0.161   6.701   5.729  0.0282  0.2108 -0.6433
11416SOL    HW135689   0.086   6.692   5.670 -0.9328 -3.3049  0.8006
11416SOL    HW235690   0.150   6.628   5.791  3.4612  0.9255  1.0054
11417SOL     OW35691   3.326   5.927   4.672 -0.4856 -0.1943 -0.1200
11417SOL    HW135692   3.252   5.885   4.716 -0.5989  0.9533  0.8347
11417SOL    HW235693   3.395   5.930   4.738 -0.4510  1.0119 -0.1887
11418SOL     OW35694   7.571   1.347   3.711  0.8268 -0.0402  0.2259
11418SOL    HW135695   7.662   1.319   3.696  0.3188 -0.2140 -3.3159
11418SOL    HW235696   7.572   1.441   3.690  0.1133 -0.1607 -0.3783
11419SOL     OW35697   7.579   3.907   2.082  0.0740  0.0340 -0.4045
11419SOL    HW135698   7.649   3.862   2.129  0.0868  0.2547 -0.2108
11419SOL    HW235699   7.613   3.917   1.993  0.4857  0.5720 -0.1892
11420SOL     OW35700   6.353   4.494  12.037 -0.0964  0.7852  0.1441
11420SOL    HW135701   6.288   4.466  12.101 -0.2416 -0.6993 -0.5993
11420SOL    HW235702   6.436   4.459  12.070 -0.2277 -0.3190 -0.6256
11421SOL     OW35703   7.748   1.675  10.995  0.1402 -0.2661 -0.6889
11421SOL    HW135704   7.656   1.649  10.996  0.3122 -0.8826  0.1042
11421SOL    HW235705   7.794   1.602  11.035  0.7173  0.9836  1.0307
11422SOL     OW35706   3.057   2.165   9.975 -0.0678 -0.1082 -0.0059
11422SOL    HW135707   3.107   2.186  10.054 -1.2127  0.2361  0.6461
11422SOL    HW235708   3.092   2.081   9.946  1.2987  0.3999  0.0770
11423SOL     OW35709   5.020   0.979   9.764 -0.2449 -0.1482  0.2331
11423SOL    HW135710   4.981   1.065   9.780 -1.2519 -0.2545 -1.3608
11423SOL    HW235711   5.102   0.979   9.814 -1.5490  0.6605  2.4933
11424SOL     OW35712   4.611   3.331   9.553  0.2842  0.1519  0.4110
11424SOL    HW135713   4.679   3.397   9.564 -0.0063  0.9232 -1.8590
11424SOL    HW235714   4.659   3.248   9.547  0.9604  0.5751 -0.1628
11425SOL     OW35715   7.173   0.684   3.663 -0.0091 -0.6724 -0.4132
11425SOL    HW135716   7.095   0.736   3.644 -2.6258 -3.4482  1.6625
11425SOL    HW235717   7.224   0.738   3.723 -2.6961 -0.3455  1.8108
11426SOL     OW35718   7.632   3.364   0.480  0.1961  0.1285 -0.2328
11426SOL    HW135719   7.618   3.458   0.464  0.9415 -0.1639 -3.1691
11426SOL    HW235720   7.723   3.349   0.456  0.7926 -1.0247  2.3761
11427SOL     OW35721   3.561   6.016   2.183  0.1915 -0.7146 -0.2411
11427SOL    HW135722   3.530   6.107   2.185 -1.5995 -1.2645 -0.7725
11427SOL    HW235723   3.651   6.022   2.153  0.2163  0.9067  0.0375
11428SOL     OW35724   7.101   6.690   1.928 -0.3280  0.3284 -0.3276
11428SOL    HW135725   7.059   6.775   1.940 -0.5425  0.2267 -0.3386
11428SOL    HW235726   7.192   6.704   1.953 -0.3280  0.5967 -0.4767
11429SOL     OW35727   4.007   0.801   5.893  0.0877 -0.5203 -1.0290
11429SOL    HW135728   3.940   0.831   5.832 -1.8203  3.0158  2.3919
11429SOL    HW235729   3.959   0.756   5.962  1.8598 -2.1024 -0.7338
11430SOL     OW35730   3.324   1.533  10.627 -0.2509  0.9955  0.4436
11430SOL    HW135731   3.356   1.540  10.716 -1.6088 -0.1855  1.0690
11430SOL    HW235732   3.241   1.580  10.626 -0.5218  0.5359 -0.0274
11431SOL     OW35733   0.265   5.789   5.033 -0.0417 -0.1646  0.2638
11431SOL    HW135734   0.333   5.738   4.987  1.0447  0.9052  0.6351
11431SOL    HW235735   0.208   5.820   4.963  1.3943  1.1490 -0.3809
11432SOL     OW35736   0.880   6.990   2.514 -0.3148  0.1118 -0.7188
11432SOL    HW135737   0.828   6.969   2.591  0.0020  1.2842 -0.1721
11432SOL    HW235738   0.878   6.909   2.461  1.8300 -1.7704  1.8142
11433SOL     OW35739   7.280   0.661  11.784  0.8736 -0.1900 -0.5538
11433SOL    HW135740   7.239   0.716  11.718  0.9298 -0.5669 -0.9049
11433SOL    HW235741   7.217   0.590  11.799  0.6112  0.1845  0.2061
11434SOL     OW35742   2.128   6.416   0.524  0.0810  0.2855 -0.6207
11434SOL    HW135743   2.035   6.402   0.540  0.4070 -0.2981  0.9110
11434SOL    HW235744   2.158   6.465   0.600  1.7499 -2.7378  0.8652
11435SOL     OW35745   6.046   7.116   9.135 -0.4379 -0.4621 -0.0647
11435SOL    HW135746   5.958   7.132   9.101 -0.4906 -0.6341 -0.0091
11435SOL    HW235747   6.082   7.048   9.078 -0.1574 -0.0381 -0.3956
11436SOL     OW35748   2.992   2.493   3.799  0.1039 -0.3005  0.3034
11436SOL    HW135749   3.077   2.527   3.771  0.9278 -1.1392  1.7045
11436SOL    HW235750   3.010   2.445   3.880 -1.5603 -1.2613  0.1516
11437SOL     OW35751   6.296   4.707   1.561 -0.1738 -0.2855 -0.2134
11437SOL    HW135752   6.201   4.702   1.551 -0.2707 -0.0244  0.5041
11437SOL    HW235753   6.312   4.795   1.595  0.3333 -0.2977 -0.4143
11438SOL     OW35754   0.349   6.912   3.428  0.2534 -0.1107  0.7843
11438SOL    HW135755   0.340   6.820   3.404  1.3970  0.4861 -2.4861
11438SOL    HW235756   0.405   6.949   3.359 -1.0183  3.2501  1.3715
11439SOL     OW35757   6.463   7.167   8.517  0.1550 -0.4977  0.4151
11439SOL    HW135758   6.432   7.253   8.488  1.5388 -0.5957 -1.5680
11439SOL    HW235759   6.541   7.151   8.463  1.3349 -1.9502  2.4290
11440SOL     OW35760   2.965   2.546   1.754  0.1263 -0.3976 -0.1367
11440SOL    HW135761   2.964   2.609   1.681  1.6070  0.4206  0.4986
11440SOL    HW235762   3.038   2.488   1.735 -0.3261 -1.0208  0.0199
11441SOL     OW35763   7.499   3.664   6.616 -1.0077  0.1753 -0.2853
11441SOL    HW135764   7.512   3.713   6.697 -1.9448 -0.2600  0.1443
11441SOL    HW235765   7.473   3.731   6.552  2.5958  1.0171 -1.0785
11442SOL     OW35766   3.416   1.321   5.757 -0.0801 -0.0906 -0.2148
11442SOL    HW135767   3.401   1.393   5.818 -1.1380  0.1132 -0.6897
11442SOL    HW235768   3.501   1.286   5.781  0.8799  1.8958 -0.5564
11443SOL     OW35769   5.451   0.198  10.040 -0.2472 -0.8515 -0.4212
11443SOL    HW135770   5.385   0.215   9.973  1.3362 -0.0817 -1.8417
11443SOL    HW235771   5.466   0.103  10.035 -0.5465 -0.8833 -0.7417
11444SOL     OW35772   0.037   0.559   4.827  0.0606 -0.3316  0.1797
11444SOL    HW135773   0.055   0.473   4.864  2.0818 -1.1058 -2.2564
11444SOL    HW235774   0.122   0.603   4.827 -0.3521  0.5403 -1.2027
11445SOL     OW35775   0.270   0.107   2.332  0.5577  0.4211  0.6621
11445SOL    HW135776   0.195   0.056   2.302  0.5733  0.5373  0.4211
11445SOL    HW235777   0.300   0.062   2.410  0.0877  0.5098  0.9012
11446SOL     OW35778   2.310   5.923   2.952  0.4759 -0.0033 -0.8352
11446SOL    HW135779   2.335   5.887   2.867 -0.2026  0.5699 -1.2891
11446SOL    HW235780   2.278   5.847   3.001 -1.5294  0.0074 -1.9980
11447SOL     OW35781   0.953   6.704   2.633  0.3395  0.0343 -0.1030
11447SOL    HW135782   0.928   6.729   2.722 -1.5490  1.3789 -0.9465
11447SOL    HW235783   0.880   6.651   2.602  1.8300 -2.0367 -0.2654
11448SOL     OW35784   2.104   5.137   8.628  0.4285  0.3173 -0.7247
11448SOL    HW135785   2.157   5.095   8.560  0.5544 -1.8353  0.6041
11448SOL    HW235786   2.016   5.102   8.613  0.2649  0.5727 -0.3578
11449SOL     OW35787   1.400   6.702   4.943 -0.4550  0.5999  0.0769
11449SOL    HW135788   1.490   6.689   4.912 -0.6588  0.2998 -0.4091
11449SOL    HW235789   1.357   6.619   4.926 -0.3370  0.0816  2.0756
11450SOL     OW35790   5.501   5.703   7.615  0.2183 -0.3061  0.5939
11450SOL    HW135791   5.560   5.733   7.685 -0.0430  0.0749  0.6506
11450SOL    HW235792   5.417   5.691   7.658  0.4144 -1.5531  0.6656
11451SOL     OW35793   4.335   5.297   1.604  0.3577 -0.2236 -0.0181
11451SOL    HW135794   4.377   5.362   1.548  1.4293  0.4434  1.4948
11451SOL    HW235795   4.253   5.339   1.632  1.0689  0.5283  0.9935
11452SOL     OW35796   1.220   5.711   6.758 -0.1861  0.1325  0.3317
11452SOL    HW135797   1.188   5.628   6.723  0.8517 -0.5763  0.9949
11452SOL    HW235798   1.143   5.754   6.795 -0.9206 -0.0425 -0.9469
11453SOL     OW35799   4.603   6.146   9.047 -0.1395  0.4663 -0.2142
11453SOL    HW135800   4.651   6.195   8.981 -0.8584  1.7259  0.1596
11453SOL    HW235801   4.539   6.095   8.998 -0.5675  1.2779 -0.5311
11454SOL     OW35802   6.408   1.918  11.424 -0.0138 -0.4196  0.8058
11454SOL    HW135803   6.429   1.910  11.517 -1.1896 -1.6337  0.9925
11454SOL    HW235804   6.479   1.872  11.379  0.7877  0.5494  1.0670
11455SOL     OW35805   1.089   2.471   8.931  0.4061 -0.1316  0.1393
11455SOL    HW135806   1.131   2.511   9.007  2.0964 -0.0250 -0.8082
11455SOL    HW235807   1.112   2.378   8.937 -0.8016 -0.4151  0.5953
11456SOL     OW35808   7.133   3.033   1.078 -0.8473 -0.2868 -0.1215
11456SOL    HW135809   7.215   2.984   1.076 -0.8118 -0.2072 -0.8492
11456SOL    HW235810   7.159   3.124   1.090 -0.7174 -0.0695 -1.7409
11457SOL     OW35811   5.271   3.189   0.027  0.1694 -0.6863  0.3771
11457SOL    HW135812   5.302   3.149   0.108  1.3422 -1.2137 -0.2997
11457SOL    HW235813   5.179   3.207   0.043  0.7477  0.7835  2.4263
11458SOL     OW35814   5.076   7.625   3.705 -0.3213 -0.2335 -0.3088
11458SOL    HW135815   5.151   7.579   3.743 -0.5893 -0.4902 -0.0809
11458SOL    HW235816   5.059   7.697   3.766  0.2991  0.3672 -0.8353
11459SOL     OW35817   2.880   6.518   7.016 -0.1393 -0.5200  0.0855
11459SOL    HW135818   2.838   6.472   6.944  1.1361 -0.6663 -0.5953
11459SOL    HW235819   2.833   6.601   7.023  0.2753 -0.1232 -1.5107
11460SOL     OW35820   2.682   5.954   9.836 -0.2442 -0.0972  0.5214
11460SOL    HW135821   2.753   6.018   9.826 -0.9104  0.7361  1.0007
11460SOL    HW235822   2.606   5.997   9.797 -0.4961 -0.9752  0.0295
11461SOL     OW35823   7.163   7.858   5.203  0.1386  0.0295  0.1100
11461SOL    HW135824   7.206   7.877   5.119 -0.6297  0.1600 -0.2700
11461SOL    HW235825   7.194   7.771   5.227  1.3336  0.5027  0.3213
11462SOL     OW35826   7.271   4.928   4.279 -0.0894 -0.1966 -0.0921
11462SOL    HW135827   7.303   5.018   4.275 -0.5187 -0.0612 -0.5509
11462SOL    HW235828   7.216   4.925   4.357 -0.2755  0.0033 -0.2177
11463SOL     OW35829   3.075   5.548   5.757 -0.0731 -0.3990  0.0932
11463SOL    HW135830   3.088   5.581   5.668  1.9413  2.0658  1.1760
11463SOL    HW235831   2.982   5.526   5.761 -0.6004  1.0461 -2.1124
11464SOL     OW35832   2.137   6.431  11.610  0.1524 -0.1114  0.0944
11464SOL    HW135833   2.078   6.396  11.544  0.9182  0.6802 -1.0387
11464SOL    HW235834   2.080   6.454  11.683 -0.5338 -2.3883  0.3476
11465SOL     OW35835   5.088   6.635   5.085  0.0985 -0.0769 -0.2496
11465SOL    HW135836   5.000   6.673   5.087  0.2451  0.2912  2.4843
11465SOL    HW235837   5.138   6.687   5.146  1.0129 -2.9933  1.6991
11466SOL     OW35838   6.917   2.692   5.495 -0.5813  0.0038  0.0530
11466SOL    HW135839   6.923   2.787   5.485  0.8805  0.0665  1.2019
11466SOL    HW235840   6.858   2.679   5.569 -1.6911 -0.0564 -0.8086
11467SOL     OW35841   3.237   3.932   0.858  0.1384  0.4642 -0.0751
11467SOL    HW135842   3.256   3.845   0.893 -0.3242  1.0618  1.7608
11467SOL    HW235843   3.237   3.989   0.934  1.2713  2.2573 -1.3280
11468SOL     OW35844   4.275   3.237   6.770  0.4426  0.7261  0.0927
11468SOL    HW135845   4.284   3.284   6.853 -0.6670  0.5497  0.3377
11468SOL    HW235846   4.199   3.278   6.729  0.6469  0.4317 -0.5782
11469SOL     OW35847   7.930   5.267   3.783 -0.0236  0.0198  0.5829
11469SOL    HW135848   8.024   5.248   3.777  0.0190 -0.8452  2.9506
11469SOL    HW235849   7.921   5.316   3.864 -1.6125  0.1966  0.3216
11470SOL     OW35850   6.824   3.082   0.762 -0.0069 -0.4639  0.2216
11470SOL    HW135851   6.789   3.129   0.838 -1.0933 -2.0568  0.7652
11470SOL    HW235852   6.872   3.148   0.713 -0.2939  0.8821  1.6663
11471SOL     OW35853   4.781   0.657   6.191  0.2599  0.2950  0.2464
11471SOL    HW135854   4.826   0.654   6.107  0.5010  0.6927  0.3552
11471SOL    HW235855   4.713   0.723   6.179  0.1952  0.2406  0.3165
11472SOL     OW35856   3.171   2.363   1.821 -0.4497 -0.2648  0.1751
11472SOL    HW135857   3.177   2.268   1.811 -2.9871 -0.3009 -1.9585
11472SOL    HW235858   3.233   2.398   1.758 -1.1840 -0.5460 -0.7274
11473SOL     OW35859   3.308   2.899   2.068  0.1955  0.0713 -0.3626
11473SOL    HW135860   3.271   2.862   1.988  1.7859  1.1014 -1.6633
11473SOL    HW235861   3.388   2.848   2.083  0.1944  0.2459  0.2592
11474SOL     OW35862   1.685   4.046   7.728  0.3931  0.2630 -0.8324
11474SOL    HW135863   1.732   4.093   7.660  2.3508 -0.6955 -0.2342
11474SOL    HW235864   1.660   4.113   7.791 -0.3964  0.9982 -1.8999
11475SOL     OW35865   1.232   3.419   0.064  0.0905  0.6817  0.6031
11475SOL    HW135866   1.187   3.336   0.076 -0.7455  1.2059  1.2145
11475SOL    HW235867   1.325   3.397   0.071  0.0094 -0.5299 -1.3526
11476SOL     OW35868   6.189   7.029  11.220 -0.2579  0.3263  0.0264
11476SOL    HW135869   6.205   7.060  11.130  3.3504  2.1449  1.0826
11476SOL    HW235870   6.110   7.076  11.247 -0.6562  0.7865 -1.7566
11477SOL     OW35871   0.899   5.805   7.957 -0.9811  0.3330 -0.4243
11477SOL    HW135872   0.958   5.851   7.899 -0.7498  1.3779  0.6008
11477SOL    HW235873   0.953   5.783   8.034 -1.5531 -0.0260 -0.1136
11478SOL     OW35874   4.278   0.695  11.392  0.5140  0.0544 -0.1337
11478SOL    HW135875   4.253   0.603  11.387  0.9410 -0.2635  2.1679
11478SOL    HW235876   4.359   0.695  11.444  0.3264  1.7377  0.2372
11479SOL     OW35877   2.940   0.022   5.272 -0.2519 -0.0801 -0.3164
11479SOL    HW135878   2.907   0.005   5.185 -0.3829  0.3268 -0.3482
11479SOL    HW235879   2.862   0.029   5.327 -0.3222  2.2122 -0.6299
11480SOL     OW35880   4.015   2.702   4.307 -0.3092  0.1323  0.0871
11480SOL    HW135881   4.051   2.736   4.225 -2.4035  1.5688 -0.2985
11480SOL    HW235882   3.978   2.617   4.284  0.3983 -0.1301 -0.1087
11481SOL     OW35883   5.235   0.274  11.085 -0.2987 -0.0803 -0.2336
11481SOL    HW135884   5.301   0.321  11.137 -0.3838 -1.0948  0.8484
11481SOL    HW235885   5.275   0.189  11.067 -0.5765 -0.0081 -1.2093
11482SOL     OW35886   2.243   6.565   6.419  0.0999  0.1504  0.0484
11482SOL    HW135887   2.229   6.658   6.405  0.4353  0.3193  0.8246
11482SOL    HW235888   2.336   6.556   6.438 -0.0448 -0.2624  0.5936
11483SOL     OW35889   7.909   5.091  10.877  0.6194  0.2255  0.6077
11483SOL    HW135890   7.979   5.062  10.936 -1.1220  0.5267  3.0032
11483SOL    HW235891   7.884   5.177  10.911 -0.3513  0.4910 -0.7165
11484SOL     OW35892   5.676   6.685   0.572  0.6591 -0.1129  0.2624
11484SOL    HW135893   5.690   6.594   0.598  0.0623 -0.1341  0.5143
11484SOL    HW235894   5.764   6.723   0.570  0.8796 -0.6022  0.4887
11485SOL     OW35895   4.315   6.256  10.121 -0.4553 -0.1926 -0.3070
11485SOL    HW135896   4.323   6.212  10.036 -0.5653 -0.2848 -0.2703
11485SOL    HW235897   4.357   6.341  10.107  0.1224 -0.4665 -0.2568
11486SOL     OW35898   7.072   4.440   5.691 -0.0381  0.2521  0.5102
11486SOL    HW135899   6.980   4.465   5.700 -0.3017 -0.6748  0.5362
11486SOL    HW235900   7.081   4.413   5.600  0.3800  0.9934  0.3311
11487SOL     OW35901   5.589   4.700   4.095  0.3408 -0.8012  0.4780
11487SOL    HW135902   5.674   4.706   4.052  1.2024 -2.6066  1.7904
11487SOL    HW235903   5.531   4.663   4.028  0.5048  0.5657 -0.4672
11488SOL     OW35904   7.020   5.758   9.743 -0.4804  0.0445 -0.3321
11488SOL    HW135905   6.951   5.692   9.734  0.8475 -1.3028 -1.1444
11488SOL    HW235906   6.982   5.837   9.705 -1.6100 -0.6491 -0.7055
11489SOL     OW35907   6.581   2.484   8.180  0.2863  0.0481 -0.1222
11489SOL    HW135908   6.628   2.428   8.117 -1.7425  0.6205 -2.3000
11489SOL    HW235909   6.568   2.428   8.256  0.8883 -1.4562 -1.0622
11490SOL     OW35910   0.704   0.563   9.417  0.1853 -0.3076  0.5825
11490SOL    HW135911   0.623   0.518   9.440  1.9555 -2.5317  3.1442
11490SOL    HW235912   0.717   0.627   9.487  0.4024  0.4493 -0.1286
11491SOL     OW35913   5.829   5.947   9.968 -1.2638  0.0914 -0.2198
11491SOL    HW135914   5.858   6.002  10.041  1.3712 -0.6936 -0.5853
11491SOL    HW235915   5.789   5.871  10.010 -0.7489  0.1519  0.3997
11492SOL     OW35916   0.531   5.035  10.874 -0.4217  0.3654  0.0327
11492SOL    HW135917   0.449   5.038  10.826 -0.4430 -1.6554 -0.1615
11492SOL    HW235918   0.598   5.049  10.807 -0.5603  0.6868 -0.0389
11493SOL     OW35919   7.840   0.668  11.751  0.4399  0.2588  0.4583
11493SOL    HW135920   7.745   0.674  11.756  0.3502 -0.9625  0.5370
11493SOL    HW235921   7.871   0.687  11.839  0.5412  4.0776 -0.2340
11494SOL     OW35922   5.135   6.523   5.500  0.2910 -0.0989 -0.2010
11494SOL    HW135923   5.093   6.609   5.500  0.6979  0.1114 -1.0186
11494SOL    HW235924   5.118   6.488   5.412 -0.1047 -0.9718  0.2176
11495SOL     OW35925   0.370   6.837   9.514  0.2158 -0.1278  0.1774
11495SOL    HW135926   0.378   6.863   9.423  1.5493 -0.6858  0.1068
11495SOL    HW235927   0.460   6.818   9.542 -0.1473  0.1087  1.6334
11496SOL     OW35928   2.042   7.258   0.597 -0.0704 -0.3943  0.0108
11496SOL    HW135929   2.123   7.235   0.643 -0.5364 -0.3183  0.8927
11496SOL    HW235930   2.002   7.326   0.652 -1.4365 -1.4376  0.3493
11497SOL     OW35931   1.821   1.341   4.441  0.0453 -0.1036 -0.3941
11497SOL    HW135932   1.826   1.325   4.535  0.2621 -2.2029 -0.7291
11497SOL    HW235933   1.730   1.322   4.418  0.1545 -0.2319 -0.7260
11498SOL     OW35934   1.600   3.039   7.617  0.1111  0.5798  0.5441
11498SOL    HW135935   1.667   3.044   7.685 -0.2301  0.2216  0.9089
11498SOL    HW235936   1.649   3.017   7.537  0.2778 -1.1177  1.0738
11499SOL     OW35937   2.686   6.385   6.587  0.1017 -0.3455 -0.3147
11499SOL    HW135938   2.633   6.326   6.642  1.9791 -2.5507 -0.7188
11499SOL    HW235939   2.764   6.403   6.639  0.6127 -0.1409 -1.1298
11500SOL     OW35940   6.602   6.540   1.079 -0.5097  0.1334 -0.0393
11500SOL    HW135941   6.666   6.495   1.134 -0.3026  0.4870  0.0155
11500SOL    HW235942   6.580   6.620   1.127  1.9576  2.0220 -1.7623
11501SOL     OW35943   6.729   7.009   1.660 -0.1022  0.3342  0.9167
11501SOL    HW135944   6.779   6.949   1.717  0.1732  0.4647  0.8154
11501SOL    HW235945   6.698   7.077   1.719  1.1427  1.0919  0.7422
11502SOL     OW35946   0.414   7.923   6.218 -0.2706 -0.0015  0.5304
11502SOL    HW135947   0.373   7.845   6.255 -0.3764 -0.2093 -0.0253
11502SOL    HW235948   0.425   7.982   6.293  0.3199 -0.7706  1.0624
11503SOL     OW35949   0.472   0.314   4.393  0.1378  0.1321  0.1636
11503SOL    HW135950   0.495   0.259   4.468  1.3374  1.3893  0.7747
11503SOL    HW235951   0.510   0.400   4.414 -2.7854  1.6167 -0.1202
11504SOL     OW35952   5.366   0.340   8.824 -0.4592  0.1016  0.0740
11504SOL    HW135953   5.286   0.340   8.771 -0.8668  1.5034  0.6597
11504SOL    HW235954   5.436   0.353   8.760 -0.9420  1.7151 -0.1841
11505SOL     OW35955   1.710   5.414  11.886  0.1917 -0.0907 -0.2271
11505SOL    HW135956   1.621   5.413  11.920 -0.9581  0.0887 -2.9662
11505SOL    HW235957   1.751   5.491  11.925 -1.2902  0.5761  0.0473
11506SOL     OW35958   2.711   0.646   9.186 -0.2519 -0.2912  0.0151
11506SOL    HW135959   2.630   0.602   9.209 -0.4833  0.3526  0.4817
11506SOL    HW235960   2.714   0.722   9.244  1.0650 -0.7203  0.5479
11507SOL     OW35961   6.835   0.284   1.000  0.0983 -0.0135 -0.1099
11507SOL    HW135962   6.834   0.379   1.009 -1.3058 -0.0216 -0.0641
11507SOL    HW235963   6.924   0.259   1.027  0.9498  1.3830 -1.4928
11508SOL     OW35964   0.105   0.543  11.159 -0.0312 -0.1074 -0.2394
11508SOL    HW135965   0.106   0.488  11.237 -1.0614  1.3069  0.8402
11508SOL    HW235966   0.196   0.549  11.131  0.7406  1.2815  2.3186
11509SOL     OW35967   7.343   4.252   2.849 -0.3777 -0.3837  0.7662
11509SOL    HW135968   7.264   4.298   2.880 -0.8815 -0.8818  0.2497
11509SOL    HW235969   7.405   4.322   2.828 -1.9238  0.2598 -2.2521
11510SOL     OW35970   7.692   7.401  10.596 -0.4615 -0.2546  0.0329
11510SOL    HW135971   7.605   7.367  10.578 -1.2765  2.0793 -0.7508
11510SOL    HW235972   7.734   7.409  10.511  0.1249 -0.3238  0.3058
11511SOL     OW35973   7.881   2.608   8.033 -0.1477 -0.4679  0.3062
11511SOL    HW135974   7.855   2.517   8.021 -1.8122  0.0475 -0.2760
11511SOL    HW235975   7.809   2.647   8.083  0.7177  0.4587  0.8821
11512SOL     OW35976   5.547   3.773   3.083 -0.2295 -0.2389 -0.4039
11512SOL    HW135977   5.506   3.839   3.138 -2.1275 -3.4947  2.4857
11512SOL    HW235978   5.615   3.735   3.139 -0.1438 -1.6432 -1.4169
11513SOL     OW35979   0.392   5.481   5.579  0.0032 -0.1421 -0.6835
11513SOL    HW135980   0.457   5.452   5.515  0.4352 -0.2869 -0.1856
11513SOL    HW235981   0.414   5.573   5.595  0.0788 -0.1902 -0.5175
11514SOL     OW35982   7.168   0.931   0.002  0.3103 -0.6903 -0.4196
11514SOL    HW135983   7.252   0.909   0.042  0.6350  0.6918 -0.2672
11514SOL    HW235984   7.106   0.867   0.037  0.7972 -0.1745  1.4690
11515SOL     OW35985   4.797   2.637   1.565  0.1063 -0.3393 -0.0180
11515SOL    HW135986   4.749   2.591   1.496  0.8095 -0.1720 -0.6308
11515SOL    HW235987   4.850   2.568   1.606  1.0699 -0.1228 -0.8586
11516SOL     OW35988   4.572   1.727   4.491 -0.7664 -0.1121 -0.3270
11516SOL    HW135989   4.622   1.754   4.414 -0.4747 -0.8603 -0.4083
11516SOL    HW235990   4.565   1.806   4.544  1.5715 -0.2444  0.2873
11517SOL     OW35991   3.692   1.787   2.126  0.2048 -0.1439  0.0295
11517SOL    HW135992   3.631   1.743   2.185 -0.7820 -0.0449 -0.8842
11517SOL    HW235993   3.730   1.717   2.074  0.8143 -0.1972  0.5420
11518SOL     OW35994   0.747   3.972   5.365  0.1121 -0.4407 -0.2186
11518SOL    HW135995   0.722   4.055   5.324  1.2684 -0.2782 -0.6566
11518SOL    HW235996   0.678   3.954   5.428 -0.3132  0.7019 -0.3325
11519SOL     OW35997   2.307   1.274  10.710  0.0836  0.9359 -0.3134
11519SOL    HW135998   2.213   1.268  10.695  0.1128 -1.5881  0.0662
11519SOL    HW235999   2.338   1.338  10.646 -1.7778  1.3062 -0.8961
11520SOL     OW36000   7.772   0.753   9.752 -0.3134  0.1067 -0.1878
11520SOL    HW136001   7.817   0.676   9.716  0.7773  1.5181 -2.0150
11520SOL    HW236002   7.680   0.737   9.733 -0.1216 -0.7945 -0.4640
11521SOL     OW36003   3.753   1.022  12.177  0.2946 -0.2273  0.2538
11521SOL    HW136004   3.846   1.013  12.156  0.0895 -0.0954 -0.7229
11521SOL    HW236005   3.744   1.112  12.208  0.3461  0.0204 -0.4413
11522SOL     OW36006   1.396   0.323   0.800  0.0967 -0.5723 -0.2476
11522SOL    HW136007   1.473   0.373   0.827 -1.0356  0.7239  0.7319
11522SOL    HW236008   1.332   0.339   0.868 -1.0914 -1.5427 -1.0929
11523SOL     OW36009   5.138   0.196   7.824 -0.0446 -0.4636  0.1559
11523SOL    HW136010   5.205   0.142   7.783  1.9356  1.8341  0.1080
11523SOL    HW236011   5.105   0.144   7.897  0.8332 -2.1885 -0.6402
11524SOL     OW36012   2.798   3.498   9.389  0.3877  0.1636  0.4238
11524SOL    HW136013   2.739   3.552   9.338 -0.5502  1.0892  2.3671
11524SOL    HW236014   2.769   3.409   9.374 -0.5944  0.5093  0.2148
11525SOL     OW36015   6.388   1.229   1.687 -0.2087  0.3921  0.0819
11525SOL    HW136016   6.358   1.264   1.771 -1.9352  2.3580 -1.2483
11525SOL    HW236017   6.370   1.135   1.693 -2.0114  0.7486  1.2890
11526SOL     OW36018   5.258   2.218   0.765  0.0973  0.0450 -0.1078
11526SOL    HW136019   5.168   2.215   0.798  0.6438  1.2759  1.6268
11526SOL    HW236020   5.277   2.127   0.741 -1.1362 -0.5017  0.8400
11527SOL     OW36021   7.816   6.546   4.655 -0.1776  0.3661  0.1966
11527SOL    HW136022   7.831   6.575   4.745 -1.6672  1.8691  0.0230
11527SOL    HW236023   7.748   6.478   4.663  0.1378  0.0517  0.2419
11528SOL     OW36024   6.531   1.199  11.085 -0.0916  0.6542 -0.4284
11528SOL    HW136025   6.573   1.222  11.169 -1.0909 -1.3583  0.6899
11528SOL    HW236026   6.497   1.111  11.099  1.4055 -0.5734 -3.6179
11529SOL     OW36027   5.473   1.985   1.396 -0.2581  0.1696  0.3167
11529SOL    HW136028   5.402   2.018   1.340 -0.3064 -0.2636  0.1175
11529SOL    HW236029   5.448   1.895   1.415  1.6999 -1.0403 -2.2369
11530SOL     OW36030   6.515   1.765   4.654  0.5889 -0.0757  0.2229
11530SOL    HW136031   6.502   1.725   4.568  0.2375  1.6610 -0.5872
11530SOL    HW236032   6.465   1.710   4.714  0.8509 -1.3253 -0.6713
11531SOL     OW36033   2.197   7.677   3.779  0.0873 -0.6836  0.0215
11531SOL    HW136034   2.119   7.709   3.823  0.1915  2.7960 -1.9839
11531SOL    HW236035   2.165   7.612   3.717 -1.1929  0.3414 -0.4346
11532SOL     OW36036   4.411   6.031   0.222  0.0613  0.3006  0.4795
11532SOL    HW136037   4.348   6.099   0.195  0.9406  1.0343  0.2414
11532SOL    HW236038   4.489   6.048   0.169  0.5898 -0.3974  1.0157
11533SOL     OW36039   3.811   3.737   6.529 -0.0944 -0.0446 -0.6298
11533SOL    HW136040   3.882   3.755   6.468  0.0110  0.3618 -0.3920
11533SOL    HW236041   3.810   3.813   6.588 -0.4368 -0.2548 -0.3599
11534SOL     OW36042   0.796   3.585   1.355  0.4089 -0.3181  0.6433
11534SOL    HW136043   0.728   3.554   1.296  2.1494  1.8809 -2.8049
11534SOL    HW236044   0.868   3.522   1.344  0.6322 -0.0775  0.7239
11535SOL     OW36045   1.269   5.983   8.220 -0.2732 -0.1529 -0.4757
11535SOL    HW136046   1.182   6.005   8.253  0.5146  1.6553  0.5277
11535SOL    HW236047   1.314   5.944   8.295  1.8332  4.8102  1.2795
11536SOL     OW36048   6.753   1.671   0.386  0.2894  0.0879  0.4150
11536SOL    HW136049   6.818   1.741   0.395  3.0641 -2.0043 -1.7080
11536SOL    HW236050   6.702   1.696   0.309  2.0517 -0.6343 -1.0809
11537SOL     OW36051   4.026   0.275   1.643  0.2757 -0.4083 -0.2639
11537SOL    HW136052   4.083   0.340   1.681  1.4940 -2.1427  1.0300
11537SOL    HW236053   4.003   0.216   1.715 -0.3829 -1.6888 -1.4442
11538SOL     OW36054   4.361   3.137  12.270  0.2750 -0.2497  0.6090
11538SOL    HW136055   4.359   3.158  12.177  0.8153  0.2300  0.6992
11538SOL    HW236056   4.377   3.043  12.273 -2.0448 -0.7240  0.1955
11539SOL     OW36057   5.307   6.638   6.149 -0.5127  0.0636 -0.5173
11539SOL    HW136058   5.268   6.720   6.120 -1.9005 -0.1764  0.5852
11539SOL    HW236059   5.378   6.665   6.207 -2.1030  0.5445  1.3196
11540SOL     OW36060   2.628   6.187  10.092 -0.1116 -0.2480 -0.2470
11540SOL    HW136061   2.662   6.182  10.181  0.2616  0.4210 -0.3482
11540SOL    HW236062   2.533   6.172  10.102 -0.0168 -0.5740  0.2070
11541SOL     OW36063   7.297   7.205  12.348 -0.2141  1.1175 -0.4332
11541SOL    HW136064   7.329   7.259  12.276  3.2598  0.3183  0.3454
11541SOL    HW236065   7.368   7.144  12.366 -1.0519  0.9977  3.4029
11542SOL     OW36066   5.082   3.153   4.199 -0.0806  0.1484 -0.0719
11542SOL    HW136067   5.041   3.080   4.152 -0.5291  0.7634 -0.6444
11542SOL    HW236068   5.141   3.193   4.135 -0.7638  1.0502 -0.1571
11543SOL     OW36069   6.075   2.565   1.708 -0.2471  0.4912  0.1675
11543SOL    HW136070   5.986   2.590   1.681 -0.4392  1.1717  1.3698
11543SOL    HW236071   6.130   2.637   1.678 -0.1747  0.3198 -0.1140
11544SOL     OW36072   0.217   7.268   4.751  0.0521  0.2104  0.5625
11544SOL    HW136073   0.201   7.349   4.704 -1.4371  0.2630  1.1315
11544SOL    HW236074   0.181   7.282   4.839  2.8987  0.1787  1.8739
11545SOL     OW36075   6.684   4.772   0.595 -0.3456  0.8110 -0.2269
11545SOL    HW136076   6.701   4.731   0.680 -0.7450  0.7415 -0.1808
11545SOL    HW236077   6.631   4.849   0.616 -0.5925  0.6956 -0.4317
11546SOL     OW36078   6.835   2.249   5.683 -0.0834 -0.0079  0.4344
11546SOL    HW136079   6.906   2.191   5.655  0.3411  0.9783 -0.5649
11546SOL    HW236080   6.779   2.257   5.606  0.1139  1.2616  0.4014
11547SOL     OW36081   0.975   7.311   4.885 -0.3591  0.5120  0.3205
11547SOL    HW136082   0.905   7.250   4.864 -0.3141  0.8415 -0.8968
11547SOL    HW236083   1.033   7.307   4.809  1.5159 -0.5272  1.7117
11548SOL     OW36084   4.739   4.537   2.874 -0.4889 -0.4997 -0.1243
11548SOL    HW136085   4.740   4.632   2.887 -0.9578 -0.5765  0.5073
11548SOL    HW236086   4.806   4.503   2.934  2.1182 -0.3171 -2.7288
11549SOL     OW36087   1.868   1.455   1.952  0.0037  0.2655 -0.6901
11549SOL    HW136088   1.784   1.502   1.951 -0.3659 -0.3899 -1.6060
11549SOL    HW236089   1.888   1.445   2.045 -1.9163 -1.2731 -0.3695
11550SOL     OW36090   4.021   6.419  11.753 -0.1309 -0.8536  0.0297
11550SOL    HW136091   4.039   6.497  11.805 -0.9247 -0.6396  0.0029
11550SOL    HW236092   4.065   6.348  11.800 -0.0781 -0.5164  0.4947
11551SOL     OW36093   2.468   2.797   0.376  0.3425  0.2960 -0.4731
11551SOL    HW136094   2.563   2.812   0.379  0.3351  0.2456  0.2091
11551SOL    HW236095   2.430   2.884   0.386  0.3200  0.2319  0.0591
11552SOL     OW36096   1.162   1.904   6.171  0.1021 -0.4077 -0.1373
11552SOL    HW136097   1.124   1.903   6.083  1.3201  2.1568 -0.8151
11552SOL    HW236098   1.200   1.817   6.182  1.1093 -0.3939 -2.7423
11553SOL     OW36099   2.040   5.301   3.393  0.0430  0.0896  0.1442
11553SOL    HW136100   2.095   5.227   3.370 -1.0774 -1.1269  1.1755
11553SOL    HW236101   1.974   5.305   3.324  0.5687  0.6632 -0.3403
11554SOL     OW36102   4.679   7.372   5.002 -0.1298 -0.8927 -0.4239
11554SOL    HW136103   4.693   7.371   5.096  0.4034  0.0814 -0.4752
11554SOL    HW236104   4.677   7.280   4.977 -0.0099 -1.1568  0.4987
11555SOL     OW36105   3.684   6.516   2.243 -0.2753 -0.0995 -0.0145
11555SOL    HW136106   3.704   6.610   2.250 -3.0015  0.4915  0.8085
11555SOL    HW236107   3.702   6.481   2.330 -0.6694 -0.0426  0.0885
11556SOL     OW36108   6.033   0.568   7.156  0.6702 -0.0482 -0.5600
11556SOL    HW136109   6.000   0.483   7.128  0.6659 -0.0968 -0.4100
11556SOL    HW236110   6.035   0.621   7.077  0.4402 -0.1134 -0.6091
11557SOL     OW36111   2.381   2.209   5.592 -0.1529 -0.1284 -0.0148
11557SOL    HW136112   2.416   2.141   5.535 -1.0095 -0.4905 -0.1280
11557SOL    HW236113   2.443   2.214   5.665  1.5431  1.0681 -1.4419
11558SOL     OW36114   4.915   1.254   6.379 -0.0264  0.0115  0.1487
11558SOL    HW136115   4.970   1.175   6.380  1.6099  1.1052  1.1519
11558SOL    HW236116   4.944   1.304   6.455 -0.1516  2.1685 -1.1526
11559SOL     OW36117   5.555   4.175   2.814 -0.1925 -0.3146 -0.2231
11559SOL    HW136118   5.614   4.106   2.843 -1.0882 -1.0147 -0.0323
11559SOL    HW236119   5.516   4.209   2.894  0.6260  0.7990 -0.2620
11560SOL     OW36120   1.248   5.778   1.608 -0.6869  0.0376  0.1667
11560SOL    HW136121   1.218   5.688   1.593  2.3815 -1.3193  1.1833
11560SOL    HW236122   1.297   5.800   1.528 -0.4640  0.3195  0.3796
11561SOL     OW36123   0.103   3.760   9.572 -0.2110  0.0866  0.0339
11561SOL    HW136124   0.049   3.688   9.540 -1.2995  0.7449  0.3135
11561SOL    HW236125   0.060   3.839   9.537  0.6287  0.6276  0.1957
11562SOL     OW36126   2.851   7.068   1.477 -0.0866  0.2896  0.1724
11562SOL    HW136127   2.876   7.122   1.552  1.1874 -0.7154  0.5004
11562SOL    HW236128   2.799   6.997   1.515 -2.2629  1.5027 -0.3236
11563SOL     OW36129   4.290   2.677   3.191 -0.3495  0.3413 -0.1473
11563SOL    HW136130   4.363   2.626   3.227 -0.2497  1.5357  1.4444
11563SOL    HW236131   4.240   2.614   3.139  0.8760 -0.8924  0.1251
11564SOL     OW36132   0.557   0.342   8.676 -0.1268 -0.0810  0.2537
11564SOL    HW136133   0.532   0.330   8.585 -1.8572  1.3892  0.4618
11564SOL    HW236134   0.620   0.414   8.674  0.2091 -0.3745  0.1854
11565SOL     OW36135   3.773   7.505   8.603  0.8896  0.5534  0.5298
11565SOL    HW136136   3.829   7.464   8.669  0.4796  0.0908  0.5913
11565SOL    HW236137   3.788   7.599   8.614  0.9293  0.4718  1.1850
11566SOL     OW36138   7.321   5.747   6.395 -0.1627  0.0574  0.1382
11566SOL    HW136139   7.313   5.680   6.463  1.3615  2.5416  3.0199
11566SOL    HW236140   7.230   5.774   6.377 -0.6782 -1.5704  0.1335
11567SOL     OW36141   7.774   4.308   5.295  0.2017  0.2722  0.1075
11567SOL    HW136142   7.807   4.276   5.211  1.7596  1.7763  0.1037
11567SOL    HW236143   7.685   4.273   5.300  0.2587 -0.2896 -1.9146
11568SOL     OW36144   7.468   1.768   6.435 -0.5601  0.3067 -0.3288
11568SOL    HW136145   7.402   1.772   6.366  0.0074  0.0112 -0.8992
11568SOL    HW236146   7.435   1.702   6.496  1.1712 -3.0449 -2.7639
11569SOL     OW36147   0.817   0.967   4.426 -0.1749 -0.0172  0.6437
11569SOL    HW136148   0.806   0.928   4.339  2.1875  0.6273 -0.0408
11569SOL    HW236149   0.764   1.046   4.424 -0.5253 -0.2627 -0.0420
11570SOL     OW36150   2.642   5.716   0.661  0.1201  0.2376  0.2133
11570SOL    HW136151   2.568   5.672   0.619  0.4095  0.5020 -0.6045
11570SOL    HW236152   2.709   5.720   0.592  1.6051 -1.6611  1.4128
11571SOL     OW36153   0.958   7.799   9.345  0.3616 -0.7597  0.2804
11571SOL    HW136154   0.907   7.855   9.287  0.2760  0.2607  1.2947
11571SOL    HW236155   1.039   7.847   9.360  0.3846 -1.0011  0.9949
11572SOL     OW36156   0.168   1.035   5.418  0.0930 -0.0638  0.2291
11572SOL    HW136157   0.219   1.021   5.498  1.7748 -0.5689 -0.8746
11572SOL    HW236158   0.199   1.119   5.384  0.3910 -0.4981 -0.5888
11573SOL     OW36159   0.663   6.409   7.245 -0.3530 -0.2467 -0.3946
11573SOL    HW136160   0.724   6.339   7.221 -1.0245 -1.3457  0.9355
11573SOL    HW236161   0.576   6.370   7.235 -0.8517  1.1458 -1.8042
11574SOL     OW36162   6.205   4.180   3.983  0.6666 -0.6272  0.2968
11574SOL    HW136163   6.265   4.124   4.032  2.0659  0.0073 -0.6232
11574SOL    HW236164   6.136   4.121   3.952  0.2399 -1.2037  2.1818
11575SOL     OW36165   7.247   5.097   9.012  0.1960  0.0199  0.0101
11575SOL    HW136166   7.197   5.142   9.079  0.8137  2.1980 -0.8818
11575SOL    HW236167   7.210   5.127   8.929  1.4890 -0.0740 -0.6403
11576SOL     OW36168   3.926   1.206   2.656  0.7079  0.2454  0.5957
11576SOL    HW136169   3.859   1.273   2.643  0.8292 -0.1124 -2.7852
11576SOL    HW236170   3.988   1.245   2.718 -0.6406  2.1238  0.8337
11577SOL     OW36171   2.386   6.797   4.367 -0.3868 -0.0978 -0.2372
11577SOL    HW136172   2.460   6.805   4.427  1.4354 -0.5672 -2.2945
11577SOL    HW236173   2.405   6.859   4.297 -1.7931 -0.4490 -0.9556
11578SOL     OW36174   3.374   1.818   8.368 -0.0483  0.4401  0.4522
11578SOL    HW136175   3.388   1.729   8.401 -0.6857 -0.4818 -1.6003
11578SOL    HW236176   3.396   1.875   8.442  1.5610 -1.3635  1.4473
11579SOL     OW36177   5.028   3.524  10.839  0.1866 -0.1331  0.1222
11579SOL    HW136178   4.974   3.445  10.845 -0.6772  0.2526 -1.7581
11579SOL    HW236179   4.966   3.596  10.851  0.6124  0.2915 -0.2165
11580SOL     OW36180   7.598   1.574   0.958 -0.4279 -0.1497  0.5102
11580SOL    HW136181   7.513   1.536   0.980 -0.4241 -0.9139 -0.6820
11580SOL    HW236182   7.629   1.521   0.884  0.7481  0.5847  0.4540
11581SOL     OW36183   5.462   4.763   7.161  0.0640  0.2690 -0.0897
11581SOL    HW136184   5.505   4.681   7.139 -1.2491 -0.8801  1.4040
11581SOL    HW236185   5.390   4.771   7.099  0.4141  0.4968 -0.4708
11582SOL     OW36186   1.111   0.993   4.884  0.5178  0.3217  0.3862
11582SOL    HW136187   1.098   0.932   4.812  0.6240  0.1832  0.4843
11582SOL    HW236188   1.116   1.079   4.841  3.5306 -0.0070 -0.1424
11583SOL     OW36189   5.859   2.455  10.690  0.1439  0.1216  0.7273
11583SOL    HW136190   5.885   2.525  10.631  2.4005  0.1431  1.6538
11583SOL    HW236191   5.805   2.498  10.756 -1.0651  0.3809 -0.3933
11584SOL     OW36192   2.175   0.193   4.117 -0.2859  0.0371  0.6680
11584SOL    HW136193   2.187   0.171   4.025 -1.3313  1.9604  0.0229
11584SOL    HW236194   2.244   0.256   4.135 -1.8204  1.8919  0.3326
11585SOL     OW36195   5.797   0.917   3.480  0.1235 -0.0046  0.6124
11585SOL    HW136196   5.888   0.916   3.449 -0.3175 -2.6691 -0.9658
11585SOL    HW236197   5.748   0.954   3.406 -0.1843  0.4020  1.0213
11586SOL     OW36198   6.846   4.426   3.361  0.2106 -0.3813  0.2550
11586SOL    HW136199   6.822   4.404   3.271 -0.7204 -0.1756  0.4423
11586SOL    HW236200   6.762   4.436   3.406  0.5836 -3.4015  1.8786
11587SOL     OW36201   1.568   3.259   8.352 -0.7637 -0.3418 -0.4614
11587SOL    HW136202   1.533   3.243   8.264 -1.7214 -2.7838  0.2707
11587SOL    HW236203   1.496   3.234   8.411  0.1551  0.4047  1.0347
11588SOL     OW36204   0.774   1.549   5.796 -0.1370 -0.1935 -0.1419
11588SOL    HW136205   0.834   1.600   5.850 -0.4502  2.1379 -1.8345
11588SOL    HW236206   0.769   1.464   5.839  2.8606  0.1505  1.1130
11589SOL     OW36207   7.676   7.317   5.321 -0.2952 -0.3872 -0.4304
11589SOL    HW136208   7.621   7.240   5.332  1.2351 -1.6045 -1.0324
11589SOL    HW236209   7.682   7.355   5.409 -2.0160 -0.2418 -0.3446
11590SOL     OW36210   0.677   6.937   3.933  0.2808 -0.3110  0.7041
11590SOL    HW136211   0.670   6.845   3.958  1.0693 -0.3782  0.6960
11590SOL    HW236212   0.734   6.976   3.999 -0.1316  0.2011  0.7676
11591SOL     OW36213   0.571   6.734  10.428 -0.2752  0.1333  0.5567
11591SOL    HW136214   0.590   6.694  10.343  3.2713  0.0066  1.2597
11591SOL    HW236215   0.634   6.806  10.434 -0.4180  0.1055  3.0968
11592SOL     OW36216   5.612   6.084   3.095  0.3124 -0.3830  0.0577
11592SOL    HW136217   5.687   6.097   3.036  0.6042 -3.3511 -0.3896
11592SOL    HW236218   5.649   6.098   3.183  0.8081  0.3662 -0.2528
11593SOL     OW36219   2.370   7.029   3.253 -0.2841  1.2890 -0.3663
11593SOL    HW136220   2.442   6.972   3.227 -1.6748 -0.8974  0.2949
11593SOL    HW236221   2.406   7.082   3.324  0.3173 -0.8287  1.0144
11594SOL     OW36222   7.824   4.489   3.605  0.5300 -0.0653  0.2711
11594SOL    HW136223   7.893   4.427   3.583 -0.0910 -0.2360 -1.3104
11594SOL    HW236224   7.752   4.435   3.637 -0.1096 -0.2277 -1.3601
11595SOL     OW36225   4.264   0.316   6.222 -0.1147  0.1448 -0.1881
11595SOL    HW136226   4.332   0.260   6.183 -0.0207  0.6813 -0.8022
11595SOL    HW236227   4.311   0.395   6.247 -0.3043  0.0669  0.4192
11596SOL     OW36228   4.516   5.007   7.577 -0.0638 -0.1415 -0.6859
11596SOL    HW136229   4.493   5.100   7.575 -1.7981 -0.5198 -0.1633
11596SOL    HW236230   4.611   5.006   7.589 -0.0877  1.5612 -0.0925
11597SOL     OW36231   3.853   2.074   2.125 -0.3987  0.0281  0.1582
11597SOL    HW136232   3.795   2.142   2.092 -0.6665  0.1485  0.8678
11597SOL    HW236233   3.937   2.118   2.139 -0.0651 -0.1799 -1.0159
11598SOL     OW36234   0.567   1.214   8.464 -0.0474  0.1036  0.1247
11598SOL    HW136235   0.514   1.293   8.458 -0.5630 -0.1600  1.0389
11598SOL    HW236236   0.506   1.146   8.495  0.4214 -0.6149 -0.4776
11599SOL     OW36237   2.963   6.087  11.406  0.4567  0.1286 -0.2010
11599SOL    HW136238   2.893   6.063  11.467  1.5188 -0.0614  0.9690
11599SOL    HW236239   2.917   6.110  11.325 -0.8356 -3.4889 -0.6718
11600SOL     OW36240   4.782   0.345   8.806  0.0364 -0.1436 -0.1572
11600SOL    HW136241   4.820   0.355   8.719  1.0693 -2.2401 -0.0059
11600SOL    HW236242   4.759   0.434   8.833 -3.0775  0.3923 -3.7120
11601SOL     OW36243   5.722   4.650   2.274  0.3053 -0.3349  0.3362
11601SOL    HW136244   5.768   4.685   2.350  0.7070  0.1001 -0.0978
11601SOL    HW236245   5.649   4.710   2.260  0.6777  0.0291 -0.0786
11602SOL     OW36246   3.515   4.583   3.967 -0.7519 -0.1353  0.7565
11602SOL    HW136247   3.567   4.503   3.955 -0.6808  0.0810 -0.4947
11602SOL    HW236248   3.458   4.564   4.041  1.2977 -0.2776  2.3871
11603SOL     OW36249   4.449   0.628   3.461  0.2666 -0.4222 -0.4463
11603SOL    HW136250   4.478   0.607   3.550 -0.6017 -1.3825 -0.3651
11603SOL    HW236251   4.518   0.592   3.404  0.2016 -0.9561 -0.1973
11604SOL     OW36252   0.764   3.691   8.425 -0.4731 -0.0902  0.1048
11604SOL    HW136253   0.699   3.735   8.370  0.1410 -0.0205 -0.5753
11604SOL    HW236254   0.848   3.719   8.390 -0.0668 -0.0041  1.1258
11605SOL     OW36255   7.668   2.496   1.112  0.2280  0.4372  0.4924
11605SOL    HW136256   7.754   2.506   1.071  0.4666  0.8473  1.0644
11605SOL    HW236257   7.635   2.413   1.080 -0.4467  1.5937 -2.0373
11606SOL     OW36258   3.428   1.571   1.719 -0.0422  0.3848  0.1985
11606SOL    HW136259   3.435   1.663   1.744 -0.5276  0.2192  0.9574
11606SOL    HW236260   3.377   1.530   1.789  1.1425 -0.7027  0.4702
11607SOL     OW36261   3.587   5.998   4.810  0.0930  0.4115 -0.2375
11607SOL    HW136262   3.674   6.014   4.847  1.0411  1.0409 -2.5355
11607SOL    HW236263   3.574   6.069   4.747 -1.3554 -0.6081 -1.1699
11608SOL     OW36264   7.943   6.360   5.409  0.5437  0.2935 -0.1615
11608SOL    HW136265   7.865   6.416   5.412 -0.9428 -1.6788 -0.1303
11608SOL    HW236266   7.975   6.369   5.319 -0.7447 -0.1448 -0.6934
11609SOL     OW36267   7.439   2.527   4.298 -0.6222  0.6077  0.2723
11609SOL    HW136268   7.478   2.447   4.332 -2.5079  0.2465  1.7375
11609SOL    HW236269   7.478   2.538   4.211  1.0682 -0.8490  0.7921
11610SOL     OW36270   3.239   6.360  11.515 -0.2801 -0.5859  0.9727
11610SOL    HW136271   3.188   6.385  11.438  0.9182 -0.4346  0.1911
11610SOL    HW236272   3.232   6.265  11.518 -2.0577 -0.4476  1.9412
11611SOL     OW36273   1.420   4.100   0.910 -0.2545  0.1655 -0.1154
11611SOL    HW136274   1.406   4.011   0.941 -0.9957  0.0976 -0.6234
11611SOL    HW236275   1.354   4.113   0.842 -0.1079  1.0736 -0.1054
11612SOL     OW36276   6.791   6.979   0.863  0.3770  0.4950  0.8006
11612SOL    HW136277   6.856   6.910   0.862 -0.7653 -0.6339 -0.0131
11612SOL    HW236278   6.805   7.026   0.945  3.8578  1.9731 -0.4701
11613SOL     OW36279   2.828   4.559  11.374 -0.6135 -0.0166  0.2851
11613SOL    HW136280   2.806   4.490  11.437  0.9159 -0.3047  0.5428
11613SOL    HW236281   2.832   4.639  11.427  0.2544 -0.1899  0.4982
11614SOL     OW36282   5.148   7.623   1.706 -0.2967  0.2266  0.1586
11614SOL    HW136283   5.242   7.605   1.700 -0.1121  1.4822 -3.2258
11614SOL    HW236284   5.142   7.705   1.754  0.3031  0.0226  0.5971
11615SOL     OW36285   2.714   3.176   4.272  0.1986 -0.0260 -0.7037
11615SOL    HW136286   2.807   3.198   4.279  0.3566 -0.4248 -1.5042
11615SOL    HW236287   2.674   3.254   4.232  0.0347  0.4714  0.3741
11616SOL     OW36288   2.071   2.188   8.226 -0.5761 -0.1643  0.0482
11616SOL    HW136289   2.166   2.174   8.230 -0.9709 -3.3219  0.9300
11616SOL    HW236290   2.048   2.220   8.313 -0.2606  1.7074 -0.5044
11617SOL     OW36291   7.521   4.613   2.284  0.0792  0.8510  0.0669
11617SOL    HW136292   7.615   4.595   2.286  0.0445  0.6633  0.0670
11617SOL    HW236293   7.483   4.539   2.236  0.1462  1.9055 -1.6997
11618SOL     OW36294   6.130   3.220   6.669  0.8757  0.6233  0.5183
11618SOL    HW136295   6.172   3.150   6.718 -1.7343 -0.6607  1.1106
11618SOL    HW236296   6.036   3.203   6.678  0.1015  0.2261 -4.9868
11619SOL     OW36297   5.292   1.785   8.290 -0.2056 -0.3242 -0.3646
11619SOL    HW136298   5.381   1.771   8.256 -0.0899 -0.8301  0.1276
11619SOL    HW236299   5.300   1.862   8.347 -0.3462  0.3678 -1.2643
11620SOL     OW36300   7.412   4.597   5.105  0.3097 -0.1634 -0.0642
11620SOL    HW136301   7.495   4.554   5.085 -0.2692 -1.2550 -0.2333
11620SOL    HW236302   7.375   4.619   5.019 -0.8203 -2.1941 -0.1726
11621SOL     OW36303   0.550   1.827   5.290 -0.2673  0.4121  0.4978
11621SOL    HW136304   0.597   1.878   5.225  0.1072  0.7988  1.0656
11621SOL    HW236305   0.505   1.759   5.239 -1.2751  1.6560 -0.3522
11622SOL     OW36306   3.515   0.032   9.104 -0.0476  0.4909 -0.7478
11622SOL    HW136307   3.558  -0.051   9.126  0.7591  1.2503  0.6589
11622SOL    HW236308   3.469   0.057   9.184 -3.3066 -0.3259 -2.2155
11623SOL     OW36309   0.302   2.101   7.314  0.1722 -0.3320 -0.2487
11623SOL    HW136310   0.257   2.051   7.246 -1.3902 -2.4981  2.1949
11623SOL    HW236311   0.396   2.088   7.296 -0.1709 -0.1333 -2.3980
11624SOL     OW36312   0.666   1.779   8.535 -0.3212  0.0865 -0.0766
11624SOL    HW136313   0.730   1.745   8.472  0.5312 -0.6563  1.1492
11624SOL    HW236314   0.699   1.750   8.620 -1.2167  1.4295  0.7579
11625SOL     OW36315   5.732   4.453   1.511 -0.3022 -0.0290  0.0238
11625SOL    HW136316   5.816   4.497   1.523 -0.6661  0.9611 -0.8396
11625SOL    HW236317   5.731   4.383   1.577  0.2374  1.3507  1.5601
11626SOL     OW36318   1.155   0.024   1.085 -0.5306  0.3723 -0.4150
11626SOL    HW136319   1.063   0.048   1.076 -0.8481 -0.4951  0.3216
11626SOL    HW236320   1.170   0.021   1.180  0.3546  0.8551 -0.5295
11627SOL     OW36321   7.887   3.356   0.441 -0.2638 -0.2251  0.1181
11627SOL    HW136322   7.898   3.439   0.395 -0.1649 -0.3920 -0.1632
11627SOL    HW236323   7.968   3.308   0.423  1.4395  1.0530  3.3496
11628SOL     OW36324   7.227   0.884   7.077  0.3573 -0.0497  0.3955
11628SOL    HW136325   7.229   0.968   7.032 -0.5505  0.4495  1.2400
11628SOL    HW236326   7.137   0.876   7.110  0.1201 -1.8345 -0.5388
11629SOL     OW36327   6.156   2.495   3.691 -0.3888 -0.4089 -0.3410
11629SOL    HW136328   6.194   2.583   3.693 -1.7117  0.1664  0.7191
11629SOL    HW236329   6.062   2.509   3.698 -0.5866 -1.9298  0.5311
11630SOL     OW36330   6.204   3.680   2.134  0.0706 -0.6729  0.2132
11630SOL    HW136331   6.234   3.684   2.044  0.4983 -2.8472  0.2250
11630SOL    HW236332   6.109   3.689   2.129  0.0868 -0.8800 -0.4563
11631SOL     OW36333   1.108   4.927   4.896 -0.5936  0.2199  0.5204
11631SOL    HW136334   1.198   4.953   4.914 -0.0816 -1.7062  1.0051
11631SOL    HW236335   1.096   4.944   4.803  0.7868 -0.8427  0.1142
11632SOL     OW36336   6.687   4.769   1.533  0.2004 -0.5016  0.5358
11632SOL    HW136337   6.616   4.729   1.483  0.4273  0.2525 -0.4063
11632SOL    HW236338   6.695   4.713   1.611 -1.3544 -0.6589  0.6246
11633SOL     OW36339   6.161   5.226  10.025  0.5980 -0.2580  0.4882
11633SOL    HW136340   6.236   5.283  10.039 -0.4088  1.6229 -1.2232
11633SOL    HW236341   6.187   5.170   9.951 -0.1991  1.6094 -1.3254
11634SOL     OW36342   5.057   6.067   7.288  0.1221 -0.4037 -0.0215
11634SOL    HW136343   5.018   6.081   7.374  2.2643 -0.9736  1.1388
11634SOL    HW236344   5.097   6.151   7.265 -0.8315 -0.1216 -0.7051
11635SOL     OW36345   7.958   0.569   9.697  0.1102 -0.2789 -0.3746
11635SOL    HW136346   7.981   0.611   9.613 -0.7215 -0.7046 -0.8227
11635SOL    HW236347   8.034   0.586   9.753 -0.3961  2.3583 -0.3179
11636SOL     OW36348   7.621   6.174   6.150  0.3102  0.1746 -0.5033
11636SOL    HW136349   7.555   6.105   6.148  0.5835 -0.2213  1.5276
11636SOL    HW236350   7.599   6.231   6.076 -1.1446 -0.9593 -0.9999
11637SOL     OW36351   6.479   6.231   5.694 -0.6725 -0.3818  0.2781
11637SOL    HW136352   6.550   6.169   5.685 -0.9572 -0.4740 -1.9307
11637SOL    HW236353   6.520   6.311   5.727  0.3863 -0.5673 -0.5453
11638SOL     OW36354   7.777   1.024   2.263 -0.2368 -0.9482 -0.7408
11638SOL    HW136355   7.821   1.028   2.349 -1.7333 -3.3093  0.2238
11638SOL    HW236356   7.842   0.983   2.206  0.3470 -0.4552 -0.4511
11639SOL     OW36357   3.069   5.401   6.256 -0.5652 -0.3177 -0.5677
11639SOL    HW136358   3.008   5.472   6.234 -0.5591 -0.0139  0.3406
11639SOL    HW236359   3.120   5.387   6.176  1.3186  2.5831 -0.0257
11640SOL     OW36360   1.842   0.976   9.413 -0.6160 -0.0016 -0.4297
11640SOL    HW136361   1.879   0.904   9.361  0.8898  0.1598  0.3622
11640SOL    HW236362   1.804   1.035   9.349 -2.2103 -1.6329 -1.0943
11641SOL     OW36363   4.534   5.663   4.313  0.3400 -0.4624  0.2595
11641SOL    HW136364   4.605   5.687   4.372  1.7737  0.5772 -1.7416
11641SOL    HW236365   4.569   5.590   4.261 -1.3823 -2.2803  1.4869
11642SOL     OW36366   1.469   4.671   3.393 -0.1334  0.6332 -0.0928
11642SOL    HW136367   1.464   4.589   3.442  1.2677 -0.1477 -1.1699
11642SOL    HW236368   1.466   4.739   3.460 -0.8249 -0.3020  0.8584
11643SOL     OW36369   2.045   6.869   1.475  0.0874  0.1830 -0.0384
11643SOL    HW136370   2.090   6.954   1.472 -1.2366  0.9293  0.0686
11643SOL    HW236371   2.050   6.843   1.567 -1.6572  1.4221  0.4683
11644SOL     OW36372   6.940   6.666   1.155  1.2402  0.8679  0.2311
11644SOL    HW136373   6.894   6.704   1.231 -0.1693  0.9106 -0.6032
11644SOL    HW236374   6.938   6.572   1.172 -0.6135  0.7295 -0.5275
11645SOL     OW36375   3.315   6.873   0.685 -0.5155  0.2367 -0.1367
11645SOL    HW136376   3.330   6.919   0.602  0.6247 -2.0982 -1.3406
11645SOL    HW236377   3.398   6.881   0.732  0.5010 -2.2324 -1.3152
11646SOL     OW36378   5.940   2.453   0.781  0.5779 -0.6658  0.7146
11646SOL    HW136379   5.885   2.384   0.817  0.0096 -0.2275  0.7088
11646SOL    HW236380   5.885   2.531   0.783  1.4241 -0.0568  1.3568
11647SOL     OW36381   7.041   5.783   3.361 -0.3191  0.4585  0.4463
11647SOL    HW136382   6.980   5.710   3.348 -0.2394  0.0970  1.9577
11647SOL    HW236383   7.078   5.799   3.274 -1.0943 -0.6347 -0.1039
11648SOL     OW36384   0.804   6.383   3.676 -0.5259 -0.5973  0.4052
11648SOL    HW136385   0.881   6.439   3.688 -2.7186  2.6361  0.9089
11648SOL    HW236386   0.809   6.356   3.584  0.7596  0.2981  0.1768
11649SOL     OW36387   5.210   7.197  11.337 -0.1924  0.1780  0.3366
11649SOL    HW136388   5.193   7.240  11.420 -0.6748 -0.8740  0.8067
11649SOL    HW236389   5.159   7.116  11.341 -1.3795  0.7691 -1.5745
11650SOL     OW36390   3.675   0.885   3.573 -0.0925  0.6889  0.3512
11650SOL    HW136391   3.611   0.817   3.553 -0.4798  1.3741 -0.8864
11650SOL    HW236392   3.759   0.848   3.543  0.1414 -0.2377  2.0428
11651SOL     OW36393   1.124   2.951   0.029 -0.2306  0.0142  0.1410
11651SOL    HW136394   1.033   2.923   0.036 -1.3071  3.2737  0.7990
11651SOL    HW236395   1.132   2.983  -0.061 -0.1129  0.8798  0.4552
11652SOL     OW36396   3.921   7.883   0.058  0.2624 -0.4231 -0.9849
11652SOL    HW136397   3.842   7.851   0.015 -1.1683  0.3004  0.9588
11652SOL    HW236398   3.905   7.976   0.073  1.6805 -0.1599 -0.9257
11653SOL     OW36399   1.180   6.799  11.015  0.0883 -0.2062  0.0910
11653SOL    HW136400   1.131   6.827  11.092  1.1530  1.6060  0.1733
11653SOL    HW236401   1.266   6.839  11.026  0.8070 -1.3107 -1.2294
11654SOL     OW36402   3.298   0.304  10.342  0.2410 -0.1541 -0.0965
11654SOL    HW136403   3.228   0.366  10.364  0.7801  0.4456 -0.0519
11654SOL    HW236404   3.359   0.308  10.415 -0.6812 -2.2247  0.8602
11655SOL     OW36405   6.053   7.389   9.907 -0.5217 -0.7178 -0.3770
11655SOL    HW136406   6.133   7.395   9.959 -0.4288  0.3737 -0.6200
11655SOL    HW236407   6.052   7.299   9.876  1.3610 -0.4234 -1.4872
11656SOL     OW36408   5.672   7.324   8.278 -0.2243  0.4902  0.2216
11656SOL    HW136409   5.667   7.252   8.342 -1.7844  0.1691 -0.2426
11656SOL    HW236410   5.602   7.384   8.304 -0.2342  0.8444 -0.6036
11657SOL     OW36411   0.716   4.919   0.137  0.7323 -0.4721 -1.0054
11657SOL    HW136412   0.731   4.840   0.086  0.4640 -1.5587  0.5430
11657SOL    HW236413   0.733   4.893   0.228 -2.5135  0.3250 -0.0312
11658SOL     OW36414   1.108   2.669   1.157  0.3418 -0.1513 -0.2680
11658SOL    HW136415   1.015   2.685   1.138 -0.1060 -3.1455 -1.1210
11658SOL    HW236416   1.143   2.633   1.076  1.3554 -2.2868  1.0353
11659SOL     OW36417   3.230   0.632   0.066 -0.4716 -0.2709 -0.8142
11659SOL    HW136418   3.255   0.682  -0.013 -0.1845 -1.3525 -1.4321
11659SOL    HW236419   3.218   0.543   0.034  1.1372 -1.0581  0.6100
11660SOL     OW36420   7.821   2.186   1.828 -0.3167 -0.1600  0.2948
11660SOL    HW136421   7.822   2.281   1.820  0.8326 -0.0342  1.5137
11660SOL    HW236422   7.860   2.169   1.914  2.7166 -1.8661 -1.2747
11661SOL     OW36423   4.724   7.921   8.595 -0.1782 -0.3376 -0.4274
11661SOL    HW136424   4.802   7.976   8.593  0.5966 -1.2885  1.2649
11661SOL    HW236425   4.685   7.931   8.508  1.8370  0.1505 -1.3432
11662SOL     OW36426   7.907   7.098   2.776  0.0803  0.2339  0.1972
11662SOL    HW136427   7.892   7.184   2.816  0.1777 -0.9574  3.0253
11662SOL    HW236428   7.994   7.073   2.806 -0.2887 -1.1934  0.1433
11663SOL     OW36429   4.653   3.587   1.619 -0.5160  0.4112 -0.0088
11663SOL    HW136430   4.711   3.660   1.593  0.5272 -0.3598  0.0852
11663SOL    HW236431   4.592   3.578   1.546  0.3207  0.3951 -0.7178
11664SOL     OW36432   3.110   5.238   0.246  0.4251 -0.0360 -0.5369
11664SOL    HW136433   3.173   5.295   0.289  1.1098 -0.0871 -1.4240
11664SOL    HW236434   3.161   5.160   0.224 -0.3365 -0.7124  0.0709
11665SOL     OW36435   2.355   3.775   3.141 -0.4079  0.9134  0.2240
11665SOL    HW136436   2.304   3.756   3.219 -0.6277  0.0054 -0.1280
11665SOL    HW236437   2.359   3.871   3.137 -0.8079  0.9699  1.0698
11666SOL     OW36438   6.711   4.357   5.953  0.4628 -0.1074 -0.0924
11666SOL    HW136439   6.726   4.289   6.018 -1.5604  0.0691  0.6296
11666SOL    HW236440   6.741   4.438   5.994  1.2594 -0.2972 -0.2797
11667SOL     OW36441   5.746   6.985   5.991 -0.0268  0.0102 -0.4303
11667SOL    HW136442   5.773   7.010   6.079  0.5011  0.4544 -0.7095
11667SOL    HW236443   5.827   6.988   5.940 -0.4681  0.5798 -1.1119
11668SOL     OW36444   5.671   7.348   9.244 -0.3910  0.1073 -0.0592
11668SOL    HW136445   5.655   7.258   9.216 -0.4929 -0.1225  0.7330
11668SOL    HW236446   5.755   7.370   9.203  0.3224 -0.8209  0.8434
11669SOL     OW36447   3.825   2.102   7.232  0.3318  0.5410 -0.3939
11669SOL    HW136448   3.908   2.128   7.191  0.4813  1.4182  0.4292
11669SOL    HW236449   3.816   2.162   7.306 -0.3462 -0.4686  0.3480
11670SOL     OW36450   4.682   2.160  10.544  0.6483  0.1488 -0.6056
11670SOL    HW136451   4.599   2.157  10.591  1.0652  1.2783  0.2330
11670SOL    HW236452   4.661   2.129  10.456 -0.9000  1.3719 -0.7073
11671SOL     OW36453   6.509   2.706   6.890 -0.4450  0.5373 -0.0422
11671SOL    HW136454   6.457   2.761   6.831  0.8438  1.4139 -0.4294
11671SOL    HW236455   6.548   2.769   6.951  1.3140  0.1335 -0.6853
11672SOL     OW36456   1.036   2.187   2.918 -0.1354 -0.1435 -0.0898
11672SOL    HW136457   1.068   2.134   2.845  0.0565  0.0827 -0.1716
11672SOL    HW236458   0.969   2.133   2.960  0.1470 -0.4996 -0.0949
11673SOL     OW36459   6.412   0.278   4.792 -0.0665  0.5134  0.7016
11673SOL    HW136460   6.449   0.366   4.794 -2.1158  1.5501 -1.8133
11673SOL    HW236461   6.441   0.242   4.708  1.1695 -1.4948  1.8918
11674SOL     OW36462   7.358   2.546   3.201 -0.2588 -0.5246 -0.2596
11674SOL    HW136463   7.406   2.621   3.165  1.0542 -1.3855 -0.3393
11674SOL    HW236464   7.410   2.470   3.177 -2.1022 -1.5838 -1.0548
11675SOL     OW36465   2.741   4.340   2.255  0.0176 -0.1962 -0.3291
11675SOL    HW136466   2.649   4.352   2.280 -0.9961 -2.6288 -2.5083
11675SOL    HW236467   2.789   4.353   2.337 -2.1366  1.8234  0.7446
11676SOL     OW36468   0.102   6.993   2.101 -0.5355  0.3622  0.2168
11676SOL    HW136469   0.164   6.929   2.136 -0.0432  0.7289  0.0099
11676SOL    HW236470   0.016   6.956   2.122 -0.3042 -1.1791 -1.3334
11677SOL     OW36471   6.017   1.018  11.882  0.2144  0.3863  0.2087
11677SOL    HW136472   5.946   0.977  11.833 -0.2782 -1.1805  2.1096
11677SOL    HW236473   6.096   0.972  11.854  0.5169  1.9251 -1.6798
11678SOL     OW36474   2.302   0.239   9.456 -0.2649  0.6983  0.2120
11678SOL    HW136475   2.305   0.150   9.490 -1.2271  0.8494  0.7430
11678SOL    HW236476   2.278   0.293   9.532 -1.5920  1.1514 -0.4999
11679SOL     OW36477   0.162   3.994  10.543 -0.1258 -0.2834  0.9332
11679SOL    HW136478   0.250   3.959  10.558  0.1305  0.6082  1.6526
11679SOL    HW236479   0.163   4.079  10.587 -1.4373 -0.3808  1.1977
11680SOL     OW36480   2.409   4.661   3.959 -0.2449  0.4230 -0.4843
11680SOL    HW136481   2.344   4.632   3.896 -0.6674  0.0917  0.0928
11680SOL    HW236482   2.363   4.723   4.015  0.5784  2.0415 -1.5369
11681SOL     OW36483   2.412   4.137  10.597  0.6031  0.0286 -0.0442
11681SOL    HW136484   2.459   4.091  10.528  0.6782  0.0055  0.0226
11681SOL    HW236485   2.475   4.199  10.632  0.8328 -0.5513  0.5800
11682SOL     OW36486   1.601   4.299   8.545  0.4129  0.1307 -0.3538
11682SOL    HW136487   1.510   4.326   8.541  0.4296  0.4280  0.8342
11682SOL    HW236488   1.599   4.205   8.528  0.0915  0.4160 -2.0381
11683SOL     OW36489   6.883   2.076  11.347 -0.1218  0.4548  0.2031
11683SOL    HW136490   6.832   2.028  11.282  0.8792 -0.6517  0.2093
11683SOL    HW236491   6.830   2.154  11.366 -1.8342 -0.6644  0.2520
11684SOL     OW36492   2.511   1.413   6.632 -0.4383 -0.0522  0.7085
11684SOL    HW136493   2.596   1.457   6.633 -0.1578 -0.5646  0.1137
11684SOL    HW236494   2.455   1.471   6.580 -0.0781 -0.3592 -0.0460
11685SOL     OW36495   4.065   1.588  10.290  0.0036 -0.1571 -0.1618
11685SOL    HW136496   3.989   1.559  10.340 -1.1175  1.8985 -0.5619
11685SOL    HW236497   4.076   1.680  10.315  2.0883 -0.2778 -0.4730
11686SOL     OW36498   1.775   4.710  10.200 -0.3590 -0.2053  0.2588
11686SOL    HW136499   1.795   4.617  10.198  0.7007 -0.0404  1.6891
11686SOL    HW236500   1.682   4.714  10.223 -0.4711 -0.9096 -0.0642
11687SOL     OW36501   1.828   4.303   8.175 -0.0386 -0.3207 -0.5955
11687SOL    HW136502   1.840   4.302   8.270  0.5851  0.2064 -0.6668
11687SOL    HW236503   1.739   4.337   8.162 -0.0082 -0.0987 -0.2131
11688SOL     OW36504   0.553   3.202   4.104  0.2546  0.4176  0.5054
11688SOL    HW136505   0.600   3.133   4.056 -0.3459 -0.9311  1.7861
11688SOL    HW236506   0.553   3.173   4.195 -0.1931  2.0337  1.0593
11689SOL     OW36507   6.814   6.925   3.126  0.1885 -0.2323 -0.0801
11689SOL    HW136508   6.849   6.853   3.074  1.3559 -0.4314  0.9258
11689SOL    HW236509   6.719   6.916   3.120  0.2801 -2.7269  1.1726
11690SOL     OW36510   0.234   7.412   4.269 -0.1994  0.1759  0.3370
11690SOL    HW136511   0.222   7.501   4.235 -0.7977  0.1413  0.4323
11690SOL    HW236512   0.323   7.410   4.304 -0.1676  0.7206  0.2883
11691SOL     OW36513   2.400   5.864   9.968  0.1061  0.2255 -0.5048
11691SOL    HW136514   2.413   5.869  10.063 -1.5467  0.3278 -0.2625
11691SOL    HW236515   2.471   5.917   9.932  0.9483 -0.0686  0.6536
11692SOL     OW36516   2.227   7.891   9.970 -0.4024 -0.9006  0.4829
11692SOL    HW136517   2.162   7.865   9.906 -0.4695  1.2986 -0.4208
11692SOL    HW236518   2.309   7.895   9.920 -0.7503  2.5623 -0.0579
11693SOL     OW36519   2.235   1.529   0.490 -0.1412  0.4183 -0.3340
11693SOL    HW136520   2.141   1.523   0.503 -0.3929 -1.0497 -2.3541
11693SOL    HW236521   2.269   1.563   0.573 -2.2265 -1.0162  1.2037
11694SOL     OW36522   6.174   6.966   0.847 -0.2770 -0.2938  0.7598
11694SOL    HW136523   6.233   7.039   0.828 -1.1415  0.5725  1.3344
11694SOL    HW236524   6.090   6.992   0.809 -0.6390 -0.9192  1.1065
11695SOL     OW36525   0.243   2.248   2.043  0.0747  0.2329  0.1638
11695SOL    HW136526   0.310   2.179   2.039  0.9950  1.1200 -0.3552
11695SOL    HW236527   0.160   2.201   2.042  0.6728 -0.8613 -0.6581
11696SOL     OW36528   7.370   6.027   9.668  0.2595 -0.3861  0.2836
11696SOL    HW136529   7.300   6.086   9.696 -0.7520 -1.8458  0.9293
11696SOL    HW236530   7.367   6.030   9.572 -0.4838 -0.1993  0.3100
11697SOL     OW36531   1.146   6.731   2.424  0.2149  0.1301  0.0427
11697SOL    HW136532   1.106   6.687   2.350  1.7624 -0.6650 -0.3606
11697SOL    HW236533   1.077   6.733   2.491 -0.9841  0.2650 -1.1552
11698SOL     OW36534   6.215   1.772  12.334  0.5480 -0.0283 -0.2076
11698SOL    HW136535   6.148   1.839  12.318  1.1342 -0.1453 -4.1490
11698SOL    HW236536   6.196   1.702  12.272  1.3826 -2.5151  2.1316
11699SOL     OW36537   3.442   1.236   7.507 -0.2778  0.1845  0.2436
11699SOL    HW136538   3.504   1.202   7.572  0.0652 -0.1419 -0.2515
11699SOL    HW236539   3.392   1.302   7.555  1.0859  1.1432  0.4111
11700SOL     OW36540   5.996   3.423   5.954 -0.0629  0.1010  0.1414
11700SOL    HW136541   5.961   3.396   5.869 -1.0369  0.2807  0.4746
11700SOL    HW236542   5.993   3.344   6.007  2.8206 -0.6588 -0.6619
11701SOL     OW36543   7.649   3.985   6.562  0.2511 -0.1128 -0.3120
11701SOL    HW136544   7.658   4.024   6.649  2.5893  0.8936 -0.9235
11701SOL    HW236545   7.586   3.915   6.573  0.4629  0.0208  2.1889
11702SOL     OW36546   5.624   6.129   6.121 -0.0026  0.4702  0.4888
11702SOL    HW136547   5.592   6.158   6.206  0.0680  0.6798  0.4429
11702SOL    HW236548   5.579   6.186   6.058  1.0452  1.2837  0.4619
11703SOL     OW36549   4.527   5.396  11.590  0.3468 -0.0279  0.3073
11703SOL    HW136550   4.541   5.490  11.596  0.5691 -0.0591  0.2979
11703SOL    HW236551   4.443   5.387  11.546  0.1422  0.1706  0.6520
11704SOL     OW36552   1.972   6.249   7.648 -0.0680  0.5814  0.4721
11704SOL    HW136553   1.912   6.180   7.676  0.3233  0.5708  1.3088
11704SOL    HW236554   2.056   6.204   7.634  0.2058  0.8960  1.0926
11705SOL     OW36555   5.495   5.188   2.072 -0.4078 -0.5020 -0.1551
11705SOL    HW136556   5.530   5.274   2.051 -1.8895  0.2140  0.1069
11705SOL    HW236557   5.561   5.147   2.127 -0.0114  0.7951  0.3641
11706SOL     OW36558   0.366   2.927   3.982 -0.0883  0.0026  0.2441
11706SOL    HW136559   0.320   2.843   3.980  1.4190 -0.8336 -0.2666
11706SOL    HW236560   0.325   2.978   3.912 -1.4648 -0.0362  0.9900
11707SOL     OW36561   0.350   1.570   2.023  0.3056 -0.8571 -0.2004
11707SOL    HW136562   0.324   1.548   2.112  0.9758  2.1587  0.8637
11707SOL    HW236563   0.273   1.611   1.984  0.3741 -1.1332 -0.6406
11708SOL     OW36564   0.541   7.800   3.172 -0.7796  0.0840 -0.7027
11708SOL    HW136565   0.490   7.741   3.227 -0.5968 -0.1092 -0.7372
11708SOL    HW236566   0.477   7.849   3.122 -0.9448  0.1722 -0.4083
11709SOL     OW36567   6.737   0.723   3.304 -0.0396  0.4111 -0.0446
11709SOL    HW136568   6.661   0.771   3.337 -1.4390 -1.4961 -0.3186
11709SOL    HW236569   6.712   0.631   3.309  2.2978 -0.2998 -0.1064
11710SOL     OW36570   0.132   1.409   5.772  0.1870 -0.4532 -0.1827
11710SOL    HW136571   0.122   1.323   5.812 -0.2782 -0.1314  0.4279
11710SOL    HW236572   0.100   1.399   5.683  0.6721 -1.0457 -0.2922
11711SOL     OW36573   5.794   6.806   6.230 -0.3843 -0.2992  0.2762
11711SOL    HW136574   5.829   6.861   6.300 -0.9953  0.1214  0.2568
11711SOL    HW236575   5.865   6.744   6.211 -0.6360 -1.2256  2.1068
11712SOL     OW36576   6.975   5.504   0.642 -0.1392  0.1749 -0.2589
11712SOL    HW136577   7.045   5.486   0.705  1.1161  2.6876 -0.7943
11712SOL    HW236578   6.894   5.490   0.692  0.7334 -1.5174  0.7689
11713SOL     OW36579   0.616   2.852  10.629  0.2651 -0.6923 -0.4945
11713SOL    HW136580   0.563   2.773  10.633 -1.1165  0.1659 -1.1783
11713SOL    HW236581   0.554   2.923  10.643  1.4883  0.2792  0.1364
11714SOL     OW36582   2.695   2.689   2.857  0.2625  0.1946 -0.0244
11714SOL    HW136583   2.663   2.696   2.767  0.2156 -2.9545 -0.3422
11714SOL    HW236584   2.616   2.698   2.911 -0.1411 -0.6964 -0.4560
11715SOL     OW36585   1.054   7.191   8.509 -0.4433  0.2057  0.2934
11715SOL    HW136586   1.020   7.164   8.594 -0.0596  1.9968  1.0828
11715SOL    HW236587   0.976   7.217   8.459 -0.5909  0.2075  0.5225
11716SOL     OW36588   3.355   5.801   3.727  0.3236  0.3209  0.5622
11716SOL    HW136589   3.346   5.791   3.822 -0.8437 -0.7853  0.3646
11716SOL    HW236590   3.369   5.711   3.695 -0.2674  0.5498 -0.3939
11717SOL     OW36591   3.602   5.403   0.496 -0.0369  0.2228  0.3377
11717SOL    HW136592   3.632   5.334   0.437 -0.4599  0.6872 -0.4472
11717SOL    HW236593   3.523   5.437   0.454  0.9346  2.1526 -0.0441
11718SOL     OW36594   1.891   3.484  10.632  0.7930  0.3825  0.0529
11718SOL    HW136595   1.894   3.389  10.648 -0.5535 -0.0263 -1.7188
11718SOL    HW236596   1.800   3.508  10.647  0.9552  1.2411 -0.2765
11719SOL     OW36597   5.407   7.847   2.769 -0.0339  0.2534 -0.8146
11719SOL    HW136598   5.474   7.803   2.717  0.1203  0.9614 -1.2299
11719SOL    HW236599   5.347   7.777   2.795  1.3102 -0.5296  0.2860
11720SOL     OW36600   0.011   1.757  12.292  0.0660  0.4608  0.4023
11720SOL    HW136601   0.099   1.732  12.262  0.6755  0.0529  2.3752
11720SOL    HW236602   0.023   1.777  12.385 -1.5918  2.2732  0.2661
11721SOL     OW36603   7.819   3.170   2.773 -0.4989 -0.4686  0.9858
11721SOL    HW136604   7.895   3.133   2.817 -0.4014  0.5662  1.7079
11721SOL    HW236605   7.762   3.199   2.843 -1.0892 -0.2871  0.4394
11722SOL     OW36606   4.117   0.450   8.683 -0.0217 -0.7847 -0.1813
11722SOL    HW136607   4.198   0.441   8.632 -0.1757 -1.7537 -0.2742
11722SOL    HW236608   4.098   0.544   8.681  1.7718 -0.3446  0.8765
11723SOL     OW36609   4.708   7.920   2.732 -0.0814  0.0701  0.0813
11723SOL    HW136610   4.697   7.912   2.827  2.0150  1.5878  0.5180
11723SOL    HW236611   4.619   7.937   2.700 -0.8451 -0.5138  1.7393
11724SOL     OW36612   7.529   0.086  10.029 -0.1175 -0.3233  0.7048
11724SOL    HW136613   7.464   0.022  10.000 -0.4477  0.1745  0.3249
11724SOL    HW236614   7.611   0.058   9.989 -0.7990  1.0833 -1.8733
11725SOL     OW36615   2.881   5.742   5.534 -0.0066  0.0334  0.4327
11725SOL    HW136616   2.832   5.663   5.511 -0.3862 -0.7123  3.3954
11725SOL    HW236617   2.973   5.716   5.526 -0.1309 -0.6305  1.0117
11726SOL     OW36618   0.381   6.081  10.506 -0.3752 -0.2652 -0.2295
11726SOL    HW136619   0.408   6.169  10.533 -0.2864  0.1245 -1.5107
11726SOL    HW236620   0.404   6.076  10.413 -1.2826 -1.2834 -0.4248
11727SOL     OW36621   2.088   1.162   2.540  0.0601  0.3046  0.1833
11727SOL    HW136622   2.114   1.133   2.627  1.0198  0.2037 -0.1168
11727SOL    HW236623   1.996   1.136   2.532  0.1619 -0.3176  0.9003
11728SOL     OW36624   5.991   4.827   1.075  0.5650 -0.1414 -0.2542
11728SOL    HW136625   5.919   4.813   1.013 -0.1675  1.1766  0.2606
11728SOL    HW236626   6.022   4.739   1.095 -1.6269 -0.8540  0.3199
11729SOL     OW36627   1.769   7.054   1.333  1.2409 -0.0305  0.1433
11729SOL    HW136628   1.763   7.034   1.427  0.6894  2.9760  0.8389
11729SOL    HW236629   1.856   7.025   1.308  1.9869  0.4964  1.9811
11730SOL     OW36630   6.519   6.029   8.013 -0.0981 -0.5737  0.0942
11730SOL    HW136631   6.487   6.036   7.923 -2.4619 -1.9116  0.7440
11730SOL    HW236632   6.458   6.083   8.064  0.1290 -1.2388  1.0966
11731SOL     OW36633   6.438   0.018  10.209 -0.2091 -0.2478 -0.1695
11731SOL    HW136634   6.438  -0.046  10.138 -0.5288 -0.6546  0.1855
11731SOL    HW236635   6.507   0.080  10.186 -0.8011  0.0504 -1.2082
11732SOL     OW36636   3.091   0.739   1.281 -0.1364 -0.1265 -0.5158
11732SOL    HW136637   3.046   0.819   1.254  1.0783  0.9981  0.6727
11732SOL    HW236638   3.139   0.711   1.203  2.4317  2.4547 -0.0595
11733SOL     OW36639   1.643   5.773   4.996 -0.5848 -0.0060 -0.2576
11733SOL    HW136640   1.571   5.727   4.951 -0.5103 -0.8781  0.4740
11733SOL    HW236641   1.601   5.849   5.036 -0.8484  0.2063 -0.9101
11734SOL     OW36642   3.874   4.431   4.498  0.4587 -0.0662  0.0178
11734SOL    HW136643   3.871   4.371   4.573 -0.5113  2.4659  2.1819
11734SOL    HW236644   3.783   4.457   4.485  0.8069  0.6086 -1.1436
11735SOL     OW36645   6.297   0.445   0.211 -0.0898 -0.4928 -0.0688
11735SOL    HW136646   6.233   0.514   0.192  0.2824  0.0639  0.6334
11735SOL    HW236647   6.357   0.448   0.136  0.0114  0.0693  0.0233
11736SOL     OW36648   2.669   1.294   8.527 -0.0447 -0.0186  0.3561
11736SOL    HW136649   2.699   1.204   8.538  1.2457  0.3531  0.0344
11736SOL    HW236650   2.631   1.318   8.611 -0.0139 -0.7213  0.5718
11737SOL     OW36651   4.225   1.460   5.558 -0.3292  0.2105 -0.1997
11737SOL    HW136652   4.141   1.416   5.547 -0.4411  0.0634  1.1195
11737SOL    HW236653   4.277   1.431   5.482 -1.1385 -0.4508 -0.5123
11738SOL     OW36654   2.263   4.921  10.406 -0.0687  0.1007 -0.3093
11738SOL    HW136655   2.353   4.900  10.429 -0.2416  0.0367  0.3310
11738SOL    HW236656   2.270   4.970  10.324  0.5149 -0.2600 -0.4797
11739SOL     OW36657   1.121   3.314   4.930  0.0779 -0.5679  0.7375
11739SOL    HW136658   1.092   3.240   4.983 -2.2844 -1.6094 -1.7916
11739SOL    HW236659   1.121   3.282   4.840  2.3349  1.5843 -0.1655
11740SOL     OW36660   0.744   1.118   5.772 -0.4260  0.2019 -0.3463
11740SOL    HW136661   0.788   1.101   5.689 -2.0517 -0.1221 -1.1857
11740SOL    HW236662   0.716   1.032   5.803 -1.3862  0.4908 -0.3768
11741SOL     OW36663   1.395   5.957   7.085  0.1107 -0.7342  0.3342
11741SOL    HW136664   1.400   5.863   7.102  0.6814 -0.6024  0.9715
11741SOL    HW236665   1.312   5.969   7.039  0.2744 -1.6165 -0.2226
11742SOL     OW36666   2.431   7.377   6.271 -0.5237 -0.2893 -0.1786
11742SOL    HW136667   2.523   7.400   6.262  0.0209 -1.9561  0.7652
11742SOL    HW236668   2.416   7.373   6.366 -1.9226  1.1823 -0.2791
11743SOL     OW36669   3.675   1.352   8.527 -0.0324 -0.7603  0.3595
11743SOL    HW136670   3.612   1.376   8.595  0.4190 -2.1408  1.3017
11743SOL    HW236671   3.641   1.271   8.491  0.0761 -0.3745 -0.6481
11744SOL     OW36672   1.600   5.202   2.528 -0.5481  0.2678 -0.3797
11744SOL    HW136673   1.668   5.240   2.584  0.1471 -0.5409 -0.6559
11744SOL    HW236674   1.648   5.167   2.453 -0.8853 -2.6750  0.6373
11745SOL     OW36675   7.309   0.538   1.291  0.4871 -0.1193 -0.7676
11745SOL    HW136676   7.292   0.628   1.265 -0.4010 -0.3590 -1.0524
11745SOL    HW236677   7.367   0.504   1.222 -0.9450 -0.4107 -1.8906
11746SOL     OW36678   1.036   6.303   5.073 -0.3342  0.3687  1.0207
11746SOL    HW136679   0.970   6.347   5.019  1.9088  0.2357 -2.1371
11746SOL    HW236680   1.082   6.375   5.116 -0.0747  0.7527  0.1235
11747SOL     OW36681   5.443   0.376   9.118 -0.2275 -0.0608 -0.5671
11747SOL    HW136682   5.394   0.370   9.036 -1.9186 -0.7279  0.4242
11747SOL    HW236683   5.466   0.286   9.139  0.9267  0.1932 -0.7101
11748SOL     OW36684   4.959   6.032   7.552 -0.2068 -0.2989 -0.6302
11748SOL    HW136685   4.950   6.006   7.643 -1.0441  0.9418 -0.3233
11748SOL    HW236686   4.939   5.953   7.502  1.5962 -1.3452  0.2424
11749SOL     OW36687   3.712   7.102   0.251 -0.5009  0.9229 -0.2780
11749SOL    HW136688   3.704   7.197   0.262 -0.9248  0.7068  1.7988
11749SOL    HW236689   3.723   7.069   0.340 -2.2011 -1.1376 -0.7488
11750SOL     OW36690   3.339   4.858   2.910 -0.3944  0.1984  0.0922
11750SOL    HW136691   3.339   4.843   3.005  0.0961 -0.9277 -0.0605
11750SOL    HW236692   3.302   4.777   2.873  2.1379 -0.6734 -0.8011
11751SOL     OW36693   1.069   1.195   0.109 -0.1625  0.1216  0.3135
11751SOL    HW136694   1.032   1.112   0.139 -0.2255  0.3990  1.0170
11751SOL    HW236695   1.087   1.244   0.189 -1.0252  1.1845 -0.1244
11752SOL     OW36696   0.269   6.455  10.200 -0.0185 -0.1079  0.2493
11752SOL    HW136697   0.353   6.410  10.190 -0.0544 -0.3244  0.8864
11752SOL    HW236698   0.239   6.470  10.110  1.4108  1.3115 -0.0415
11753SOL     OW36699   3.630   3.183   1.203 -0.7986 -0.2110  0.3131
11753SOL    HW136700   3.622   3.225   1.289 -0.4961  0.1007  0.1918
11753SOL    HW236701   3.661   3.095   1.223 -0.7946 -0.1622  0.5329
11754SOL     OW36702   2.041   1.507   4.545  0.5508  0.7308  0.0303
11754SOL    HW136703   2.093   1.582   4.517 -0.8028  1.3411 -0.9182
11754SOL    HW236704   1.953   1.541   4.556  0.0208 -0.6007  0.0986
11755SOL     OW36705   0.920   5.677   7.214  0.4511 -0.5399  0.2732
11755SOL    HW136706   0.875   5.595   7.234 -1.0160  0.5192  1.5648
11755SOL    HW236707   0.862   5.722   7.152  0.8908 -0.1622  0.1296
11756SOL     OW36708   7.858   5.531   7.237 -0.2731 -0.0355  0.1380
11756SOL    HW136709   7.838   5.601   7.300  0.8933 -0.6762  1.2699
11756SOL    HW236710   7.952   5.518   7.244 -0.1082 -0.1758 -1.7488
11757SOL     OW36711   0.716   3.477   0.456  0.2253  0.3983 -0.8682
11757SOL    HW136712   0.775   3.440   0.522  1.0801  0.5462 -1.5318
11757SOL    HW236713   0.630   3.442   0.478  0.1737  1.6905  1.3118
11758SOL     OW36714   7.179   4.258   0.994 -0.2043 -0.3110  0.1275
11758SOL    HW136715   7.259   4.214   1.024  0.6346  0.2458 -1.2364
11758SOL    HW236716   7.134   4.281   1.075  1.5157  0.2700  0.9803
11759SOL     OW36717   6.249   6.672   2.975 -0.3533  0.0723  0.3793
11759SOL    HW136718   6.202   6.738   2.925 -0.2694  0.1494  0.4013
11759SOL    HW236719   6.181   6.617   3.013 -0.4160 -0.0015  0.1579
11760SOL     OW36720   6.348   7.401   0.180  0.3869 -0.4395  0.1189
11760SOL    HW136721   6.379   7.487   0.208  1.6832 -0.7733 -0.2271
11760SOL    HW236722   6.403   7.380   0.104 -1.3520 -0.6518 -1.1251
11761SOL     OW36723   6.920   1.485  12.027  0.0138  0.1417  0.0981
11761SOL    HW136724   6.928   1.440  12.111  2.4130  0.0179 -0.1221
11761SOL    HW236725   6.933   1.577  12.048  1.4583  0.0276 -0.1960
11762SOL     OW36726   5.413   7.106   7.397  0.5807 -0.0817 -1.0476
11762SOL    HW136727   5.414   7.089   7.491  0.8605  1.3184 -0.7858
11762SOL    HW236728   5.336   7.161   7.383  0.3873 -0.5037 -1.6861
11763SOL     OW36729   0.014   3.423   6.134  0.6498 -0.0313  0.3061
11763SOL    HW136730  -0.023   3.463   6.213 -0.3687 -1.3579  0.5237
11763SOL    HW236731  -0.061   3.395   6.083  1.3092 -2.0434  0.3702
11764SOL     OW36732   1.074   2.588   7.061 -0.0923 -0.1606  0.1588
11764SOL    HW136733   1.127   2.668   7.055 -0.2598  0.0572  1.3916
11764SOL    HW236734   0.996   2.614   7.111 -0.9192 -0.7142 -0.8088
11765SOL     OW36735   1.968   2.696   2.439 -0.2362  0.2455  0.2611
11765SOL    HW136736   1.989   2.649   2.519 -0.7732 -0.0213  0.2512
11765SOL    HW236737   1.968   2.629   2.371 -0.1111  0.4126  0.0952
11766SOL     OW36738   4.080   1.319  11.122 -0.1870 -0.5061  0.0089
11766SOL    HW136739   4.074   1.414  11.107  0.7262 -0.3689  0.4487
11766SOL    HW236740   3.993   1.295  11.154 -0.2580  0.2919  0.4477
11767SOL     OW36741   5.968   4.741  11.938  0.2040 -0.2779  0.2777
11767SOL    HW136742   5.934   4.729  11.849  0.7137  1.1424 -0.1494
11767SOL    HW236743   6.062   4.726  11.930  0.2272 -0.3272  0.6162
11768SOL     OW36744   7.479   0.055   4.291  0.2706  0.4639 -0.6760
11768SOL    HW136745   7.462   0.040   4.384  0.7022 -0.3231 -0.7131
11768SOL    HW236746   7.575   0.063   4.286  0.1991  1.2200 -0.9575
11769SOL     OW36747   1.099   3.787  10.911 -0.1195 -0.0341  0.4025
11769SOL    HW136748   1.089   3.836  10.829 -0.5553 -0.1215  0.4064
11769SOL    HW236749   1.194   3.775  10.919 -0.1123 -0.6480 -0.4541
11770SOL     OW36750   7.291   1.535   1.874 -0.7823 -0.2059  0.5720
11770SOL    HW136751   7.295   1.530   1.969 -0.3130  2.0403  0.7394
11770SOL    HW236752   7.347   1.610   1.852 -1.0221 -0.5661 -1.4638
11771SOL     OW36753   5.930   4.515  11.201 -0.2219  0.3188 -0.4101
11771SOL    HW136754   6.022   4.509  11.177 -0.3341  0.1006 -0.7768
11771SOL    HW236755   5.908   4.429  11.236  0.0363  0.7284  0.8391
11772SOL     OW36756   4.308   5.370   5.033 -0.7336 -0.1592 -0.4560
11772SOL    HW136757   4.235   5.321   5.071 -0.2918 -0.4607  0.0251
11772SOL    HW236758   4.387   5.325   5.065 -0.2877  1.4817  0.9120
11773SOL     OW36759   2.421   0.072   9.091  0.4200  0.4825 -0.0653
11773SOL    HW136760   2.517   0.070   9.098  0.3978  0.9222  0.3924
11773SOL    HW236761   2.393  -0.011   9.131  0.6561 -0.1008 -1.0863
11774SOL     OW36762   3.911   7.953  11.657 -0.3670  0.2511  0.4136
11774SOL    HW136763   3.859   7.907  11.591 -1.4998  1.2095  0.6203
11774SOL    HW236764   3.926   8.040  11.620 -0.3944  0.5563  1.1111
11775SOL     OW36765   6.288   3.462  11.803  0.4605 -0.4035  0.0508
11775SOL    HW136766   6.211   3.441  11.749 -0.6859  0.7289  1.1687
11775SOL    HW236767   6.295   3.389  11.864  0.9548 -1.0402 -0.7500
11776SOL     OW36768   6.643   2.401   5.812 -0.1422  0.5982  0.0254
11776SOL    HW136769   6.586   2.324   5.813 -1.7571  1.7356 -0.4081
11776SOL    HW236770   6.728   2.368   5.784 -0.2044 -1.3816  1.8833
11777SOL     OW36771   5.047   1.177   4.338  0.0374 -0.3084  0.1005
11777SOL    HW136772   5.128   1.136   4.307  0.6420  0.3041  0.8406
11777SOL    HW236773   5.071   1.268   4.357 -0.6239 -0.3296  1.1175
11778SOL     OW36774   7.143   4.663   4.877 -0.4484  0.4746  0.2205
11778SOL    HW136775   7.058   4.620   4.870 -0.9430  1.4074  0.3227
11778SOL    HW236776   7.205   4.592   4.893 -1.4659 -0.0577  2.1121
11779SOL     OW36777   7.328   1.489   4.559 -0.3291 -0.0288  0.0143
11779SOL    HW136778   7.259   1.474   4.624  0.3788 -0.4690  0.6914
11779SOL    HW236779   7.285   1.480   4.475 -1.5109  1.5853  0.3916
11780SOL     OW36780   1.728   0.136   3.062  0.2707  0.0526 -0.9897
11780SOL    HW136781   1.739   0.145   2.967 -1.9965 -0.9812 -1.3949
11780SOL    HW236782   1.720   0.226   3.093  2.7459  0.5146 -1.4813
11781SOL     OW36783   0.160   5.246   1.143  0.0643 -0.5769 -0.5220
11781SOL    HW136784   0.189   5.159   1.168  0.3881 -0.5512 -0.8061
11781SOL    HW236785   0.232   5.282   1.091  1.1019  0.8403  1.7035
11782SOL     OW36786   4.841   2.469   5.151  0.8243  0.2471  0.2521
11782SOL    HW136787   4.867   2.419   5.229  0.0423  0.0476  0.3954
11782SOL    HW236788   4.757   2.430   5.125  1.3462 -0.0537 -1.0235
11783SOL     OW36789   1.553   4.945   6.343  0.1063  0.4163 -0.5419
11783SOL    HW136790   1.640   4.982   6.325 -0.0314  1.1564  0.2371
11783SOL    HW236791   1.571   4.867   6.395  0.2887  1.2014  0.6307
11784SOL     OW36792   1.029   5.886   1.031 -0.6728  0.3145  0.6901
11784SOL    HW136793   0.950   5.932   1.000 -0.5389  1.2557  1.6669
11784SOL    HW236794   1.043   5.816   0.967 -1.9877  0.4672  0.1964
11785SOL     OW36795   1.192   4.258   9.421  0.2457 -0.2053 -0.8051
11785SOL    HW136796   1.214   4.173   9.384 -0.7141 -1.1153  0.6542
11785SOL    HW236797   1.235   4.260   9.506 -2.4417 -0.7027  0.6823
11786SOL     OW36798   6.730   2.885   0.370  0.4770  0.9604 -0.0114
11786SOL    HW136799   6.660   2.890   0.305  0.1999 -1.8871 -0.0574
11786SOL    HW236800   6.786   2.814   0.340  1.8843  1.3807  1.4516
11787SOL     OW36801   7.276   0.359  11.198 -0.1679  0.8647 -0.2753
11787SOL    HW136802   7.367   0.377  11.173 -0.0376  1.0791  0.3279
11787SOL    HW236803   7.283   0.287  11.262 -0.5452 -0.1441 -1.3373
11788SOL     OW36804   3.076   4.884   6.677  0.2042 -0.2624 -0.0984
11788SOL    HW136805   3.041   4.964   6.716  0.7282 -0.7337  1.4058
11788SOL    HW236806   3.149   4.860   6.734  0.8137 -1.1622 -1.2207
11789SOL     OW36807   6.153   4.066   4.463 -0.2958  0.3199 -0.7676
11789SOL    HW136808   6.215   4.117   4.411 -1.1254  0.6755 -1.4263
11789SOL    HW236809   6.206   4.027   4.532  0.6920  0.4568 -1.4367
11790SOL     OW36810   4.992   2.018   6.556  0.4910  0.0403 -0.2174
11790SOL    HW136811   4.981   2.108   6.586 -1.1638 -0.0020 -0.6246
11790SOL    HW236812   4.903   1.988   6.536  0.7374 -2.3525  1.7614
11791SOL     OW36813   1.216   0.402   7.751  0.3488 -0.4459 -0.7220
11791SOL    HW136814   1.239   0.463   7.681  0.6157 -1.1421 -1.2473
11791SOL    HW236815   1.194   0.321   7.706 -0.7681 -0.5243 -0.0813
11792SOL     OW36816   1.544   0.594   3.294 -0.2458 -0.4017 -0.4046
11792SOL    HW136817   1.533   0.673   3.241 -0.9140 -0.1481  0.1070
11792SOL    HW236818   1.591   0.624   3.372  1.7530 -0.9753 -1.3144
11793SOL     OW36819   7.364   0.216  11.655  0.3893 -0.0011  0.6536
11793SOL    HW136820   7.435   0.269  11.690  1.7489 -0.8374 -0.6942
11793SOL    HW236821   7.293   0.278  11.638  2.1363  1.5447 -1.4908
11794SOL     OW36822   5.107   1.031   0.438  0.3145 -0.3382 -0.6245
11794SOL    HW136823   5.107   1.092   0.511 -2.1717  0.8027 -1.4660
11794SOL    HW236824   5.174   0.966   0.460  0.7821  0.8784  1.8306
11795SOL     OW36825   3.244   6.237   2.333 -0.3390  0.1030 -0.7873
11795SOL    HW136826   3.165   6.257   2.282  0.4808  1.1494 -1.6960
11795SOL    HW236827   3.223   6.265   2.422 -1.2447 -0.3185 -0.8567
11796SOL     OW36828   0.402   5.523   2.022 -0.0626 -0.3403  0.3119
11796SOL    HW136829   0.411   5.427   2.029 -1.1524 -0.4716  0.1288
11796SOL    HW236830   0.485   5.557   2.055  1.0310 -1.3834 -1.2241
11797SOL     OW36831   0.227   2.003   7.601 -0.4754 -0.4835 -0.0575
11797SOL    HW136832   0.230   2.001   7.506  0.5086 -1.0516 -0.0194
11797SOL    HW236833   0.234   2.096   7.623 -1.6911 -0.2524 -0.5492
11798SOL     OW36834   0.976   1.474   0.605 -0.1790 -0.3429  0.1656
11798SOL    HW136835   0.899   1.518   0.641  0.4736  0.6108  0.4422
11798SOL    HW236836   0.944   1.388   0.577 -1.3357  0.0346  0.2774
11799SOL     OW36837   3.778   2.459   6.651  0.7204 -0.2496  0.0295
11799SOL    HW136838   3.868   2.465   6.681  0.6574 -0.9814  0.3888
11799SOL    HW236839   3.759   2.545   6.615  1.2087  0.2490  0.9289
11800SOL     OW36840   6.265   3.811   9.913  0.1113  0.0761  0.1403
11800SOL    HW136841   6.287   3.791   9.823 -0.0154  2.4804 -0.5100
11800SOL    HW236842   6.273   3.907   9.919  0.7275 -0.0550  2.8444
11801SOL     OW36843   6.017   3.545   5.437 -0.2067  0.4614 -0.3500
11801SOL    HW136844   6.009   3.583   5.524 -2.1350 -2.3886  0.8955
11801SOL    HW236845   6.064   3.462   5.451 -0.7792 -0.1828 -1.9417
11802SOL     OW36846   3.964   5.929   8.754  0.2954  0.1652 -0.5966
11802SOL    HW136847   3.902   5.857   8.762  1.2960 -0.6999 -0.4031
11802SOL    HW236848   4.019   5.905   8.679  2.8918 -1.0741  1.5631
11803SOL     OW36849   0.067   3.385  12.003 -0.0887 -0.2075  0.1704
11803SOL    HW136850   0.118   3.358  12.079  0.2234  1.2712  0.5176
11803SOL    HW236851  -0.014   3.420  12.040  0.6495  1.8345 -0.0549
11804SOL     OW36852   0.904   0.968   1.586  0.1511  0.0931  0.4622
11804SOL    HW136853   0.993   0.974   1.620  1.2405 -1.8735 -1.7859
11804SOL    HW236854   0.881   0.875   1.597 -1.0429  0.2813 -0.3046
11805SOL     OW36855   1.060   7.681   7.235  0.3701 -0.2242 -0.1441
11805SOL    HW136856   1.045   7.735   7.313  0.6818  0.3992 -0.4975
11805SOL    HW236857   1.032   7.737   7.162 -0.7717 -1.1459 -0.4243
11806SOL     OW36858   3.833   6.046   4.915 -0.0542 -0.2609  0.3758
11806SOL    HW136859   3.819   6.042   5.010  3.5969 -0.9367  1.0416
11806SOL    HW236860   3.862   6.136   4.900  0.4576 -0.4647  0.1253
11807SOL     OW36861   2.378   7.423   0.902  0.3395 -0.1000  0.0427
11807SOL    HW136862   2.465   7.403   0.866  0.6897  0.0792  0.7582
11807SOL    HW236863   2.364   7.515   0.879 -0.6199 -0.7054 -1.9504
11808SOL     OW36864   1.296   4.103  10.991 -0.2784 -0.2310  0.8192
11808SOL    HW136865   1.338   4.180  11.028  0.4072 -0.1466 -0.0822
11808SOL    HW236866   1.203   4.125  10.988 -0.1535  0.3507  1.0682
11809SOL     OW36867   5.022   3.518   8.093  0.1187 -0.1029  0.6041
11809SOL    HW136868   4.932   3.543   8.115 -0.4987 -2.2348  0.6999
11809SOL    HW236869   5.014   3.472   8.009  1.3094  0.7733 -0.0110
11810SOL     OW36870   3.432   5.427   2.874  0.5992 -0.4957  0.3775
11810SOL    HW136871   3.524   5.417   2.852  0.2721 -2.2542 -0.3788
11810SOL    HW236872   3.391   5.458   2.794  0.3979 -0.6192  0.4306
11811SOL     OW36873   1.843   4.166   0.079  0.1596  0.7405 -0.1692
11811SOL    HW136874   1.859   4.091   0.136 -0.0650  1.7669  1.3016
11811SOL    HW236875   1.904   4.233   0.110 -1.2579  1.9524  0.1359
11812SOL     OW36876   4.490   5.736  10.828 -0.2120  0.2778  0.2656
11812SOL    HW136877   4.558   5.688  10.780 -0.1691  1.1815 -0.5946
11812SOL    HW236878   4.413   5.680  10.823 -0.5514  0.8429 -1.8823
11813SOL     OW36879   3.348   7.049   5.347  0.1083 -0.0881  0.3287
11813SOL    HW136880   3.281   7.070   5.283  0.6387 -1.2378 -0.6475
11813SOL    HW236881   3.300   7.024   5.426 -0.5582  0.7953  0.2120
11814SOL     OW36882   5.752   3.945   6.908  0.7875 -0.3064  0.7162
11814SOL    HW136883   5.671   3.913   6.867  2.2731 -2.9792 -0.4274
11814SOL    HW236884   5.722   4.001   6.980 -2.0576 -1.0725  0.2716
11815SOL     OW36885   2.631   4.558   1.939  0.1903  0.3895 -0.6264
11815SOL    HW136886   2.606   4.466   1.945  1.7197 -0.0559 -0.6153
11815SOL    HW236887   2.617   4.593   2.027  3.1251 -0.8586  0.4913
11816SOL     OW36888   3.912   4.931   7.041  0.6643  0.4336  0.0530
11816SOL    HW136889   3.928   5.024   7.028 -2.3796  1.2383  1.2406
11816SOL    HW236890   3.856   4.905   6.969  1.2849 -0.4571 -0.1337
11817SOL     OW36891   3.669   0.005   3.564 -0.0544  0.3163 -0.3120
11817SOL    HW136892   3.598   0.044   3.614  0.0550  0.1716 -0.0445
11817SOL    HW236893   3.672   0.056   3.483 -1.0863 -0.2881 -0.7500
11818SOL     OW36894   7.464   3.866   5.262 -0.3570  0.0854 -0.0159
11818SOL    HW136895   7.540   3.901   5.215  1.0992 -1.5848  0.9404
11818SOL    HW236896   7.490   3.869   5.354 -2.3891  1.5535  0.5751
11819SOL     OW36897   3.629   5.538   6.970  0.1705 -0.3031  0.3357
11819SOL    HW136898   3.628   5.614   7.028  0.4403  0.4035 -0.5459
11819SOL    HW236899   3.596   5.573   6.886  2.0513 -0.6957 -0.6244
11820SOL     OW36900   7.614   7.490   4.621  0.3206 -0.2951  0.0059
11820SOL    HW136901   7.518   7.496   4.619  0.2454 -0.9030  0.8734
11820SOL    HW236902   7.631   7.397   4.606  0.6976 -0.4452  1.2682
11821SOL     OW36903   0.923   7.371   4.447  0.4779 -0.2573  0.2431
11821SOL    HW136904   0.918   7.349   4.354 -2.9595 -0.6779  0.4129
11821SOL    HW236905   0.867   7.447   4.456  2.7200  1.3537  1.6739
11822SOL     OW36906   0.846   2.010   3.011 -0.1195  0.8345  0.0187
11822SOL    HW136907   0.788   1.954   2.960 -1.0209  1.4118  0.3845
11822SOL    HW236908   0.901   1.949   3.061 -0.5340  0.2812 -0.1916
11823SOL     OW36909   4.983   5.592   1.791 -0.2207 -0.0742  0.0118
11823SOL    HW136910   4.974   5.582   1.696 -1.5516  1.1038 -0.0176
11823SOL    HW236911   5.011   5.683   1.803 -0.4194 -0.1109  0.7643
11824SOL     OW36912   5.174   4.885   4.472  0.7097 -0.3181 -0.2963
11824SOL    HW136913   5.245   4.850   4.526  0.0785 -0.4556  0.4676
11824SOL    HW236914   5.196   4.858   4.383  0.7135 -1.8880  0.1566
11825SOL     OW36915   0.872   1.902   7.121  0.2476  0.7259 -0.1052
11825SOL    HW136916   0.959   1.933   7.146  0.2996  1.6920 -1.3645
11825SOL    HW236917   0.888   1.845   7.046  0.0523 -1.7111  1.5678
11826SOL     OW36918   5.142   3.808   9.315 -0.1606 -0.1593 -0.1800
11826SOL    HW136919   5.165   3.760   9.235 -0.1754  1.2518 -1.0580
11826SOL    HW236920   5.224   3.848   9.343 -0.5650  1.1237 -0.7385
11827SOL     OW36921   2.643   2.457   7.643  0.9764 -0.1462 -0.0313
11827SOL    HW136922   2.732   2.483   7.619  1.0920 -0.4566  0.0648
11827SOL    HW236923   2.600   2.539   7.669  2.2923 -0.4008  3.4650
11828SOL     OW36924   6.934   0.520   9.148 -0.4061 -0.2023 -0.7251
11828SOL    HW136925   6.873   0.574   9.198 -1.1810 -0.6743 -1.1503
11828SOL    HW236926   6.956   0.573   9.072  1.5338  0.9287  0.5386
11829SOL     OW36927   7.614   0.808  10.811  0.2193 -0.2204  0.5521
11829SOL    HW136928   7.569   0.753  10.748 -0.7541  0.6800  0.4458
11829SOL    HW236929   7.707   0.794  10.793 -0.0399 -0.3295 -0.7625
11830SOL     OW36930   5.160   3.444  11.232 -0.3915 -0.4410  0.0547
11830SOL    HW136931   5.144   3.509  11.301  0.1041  1.2263 -1.3542
11830SOL    HW236932   5.072   3.411  11.211 -0.6702 -0.1195  0.6611
11831SOL     OW36933   3.211   1.703   9.930  0.2039  0.4382 -0.4242
11831SOL    HW136934   3.192   1.671  10.018  1.7193  0.7668  0.0510
11831SOL    HW236935   3.242   1.626   9.882 -0.8752  0.2044 -0.7616
11832SOL     OW36936   2.571   0.734   0.764 -0.4825 -0.0588  0.3234
11832SOL    HW136937   2.570   0.807   0.825 -0.9729  0.3611 -0.1758
11832SOL    HW236938   2.662   0.727   0.736  0.1499 -1.4471  2.4845
11833SOL     OW36939   6.835   5.169   1.200 -0.3718  0.0592  0.2961
11833SOL    HW136940   6.869   5.160   1.289  0.5433 -2.5256 -0.2124
11833SOL    HW236941   6.774   5.096   1.189 -1.3391  0.9863 -0.8557
11834SOL     OW36942   7.927   4.189   8.425  0.2499 -0.6285 -0.0180
11834SOL    HW136943   8.016   4.202   8.394  0.8313 -1.4567  1.2165
11834SOL    HW236944   7.879   4.266   8.393  1.6147  0.3040  0.0760
11835SOL     OW36945   7.816   1.038  10.717  0.1591  0.5167  0.0717
11835SOL    HW136946   7.753   1.018  10.648 -0.0446 -1.1276  0.6840
11835SOL    HW236947   7.898   0.999  10.686  0.0589 -0.2627  0.7465
11836SOL     OW36948   0.871   1.720  10.746 -0.7257 -0.2106 -0.0957
11836SOL    HW136949   0.915   1.798  10.778 -0.7499 -0.0823 -0.3756
11836SOL    HW236950   0.917   1.647  10.788  0.4680 -0.1449 -1.2226
11837SOL     OW36951   4.492   4.762   0.616  0.0301 -0.0931  0.4355
11837SOL    HW136952   4.502   4.857   0.626  0.3850 -0.1216  0.3654
11837SOL    HW236953   4.541   4.741   0.537  1.3900 -0.5748  1.3637
11838SOL     OW36954   2.616   7.007   9.691 -0.0260  0.4104 -0.4491
11838SOL    HW136955   2.576   6.921   9.704  0.2830  0.3103 -0.1520
11838SOL    HW236956   2.692   6.989   9.634  0.9032  0.2516  0.7937
11839SOL     OW36957   6.109   0.193   9.974 -0.5943 -0.3067  0.4680
11839SOL    HW136958   6.080   0.103   9.994 -0.8413 -0.3705 -0.1424
11839SOL    HW236959   6.184   0.181   9.916 -0.6952 -0.1201  0.2971
11840SOL     OW36960   1.876   6.831   3.762 -0.1880 -0.2021  0.3642
11840SOL    HW136961   1.861   6.780   3.683  0.1713  0.0202  0.1502
11840SOL    HW236962   1.842   6.776   3.833 -0.7190 -0.3056  0.0355
11841SOL     OW36963   6.205   7.341   4.282 -0.2741  0.1509 -0.0753
11841SOL    HW136964   6.172   7.365   4.369  0.7018  1.7577 -0.1104
11841SOL    HW236965   6.226   7.424   4.240 -1.1972 -0.5578 -2.0770
11842SOL     OW36966   4.493   0.297   3.802  0.1545  0.1077  0.0391
11842SOL    HW136967   4.488   0.382   3.846 -0.3464  0.5653 -0.8797
11842SOL    HW236968   4.584   0.269   3.815  0.0900  0.3499  1.1273
11843SOL     OW36969   1.373   1.012   6.031 -0.4111  0.4455 -0.0248
11843SOL    HW136970   1.445   1.067   6.000 -0.2466  0.8172  0.9747
11843SOL    HW236971   1.408   0.969   6.109 -0.8328 -0.4098 -0.2942
11844SOL     OW36972   2.027   5.749   8.812  0.5523 -0.0662 -0.0959
11844SOL    HW136973   2.100   5.808   8.829 -0.3865  1.4555 -1.0050
11844SOL    HW236974   1.952   5.793   8.853  0.0630 -1.3692  0.4337
11845SOL     OW36975   7.507   1.353   7.781 -0.0724 -0.0347  0.4560
11845SOL    HW136976   7.539   1.433   7.824  0.7117 -0.8513  1.4360
11845SOL    HW236977   7.452   1.385   7.710 -2.2390  1.3973  2.6117
11846SOL     OW36978   7.954   2.266   0.515  0.0822 -0.1716  0.7236
11846SOL    HW136979   7.947   2.311   0.600  0.0944 -1.2473  1.3066
11846SOL    HW236980   7.897   2.190   0.524  0.1160 -0.3146 -0.2305
11847SOL     OW36981   3.175   6.482   8.397 -0.2422  0.4641  0.7254
11847SOL    HW136982   3.116   6.524   8.334 -0.1719 -1.0069 -0.3804
11847SOL    HW236983   3.117   6.449   8.466 -0.4278  1.1770  0.9228
11848SOL     OW36984   4.189   6.146  10.633 -0.0343  0.4009  0.6192
11848SOL    HW136985   4.154   6.181  10.715 -3.4725 -1.0225 -0.0683
11848SOL    HW236986   4.115   6.151  10.572  1.2980 -1.9606 -1.3435
11849SOL     OW36987   6.079   2.007   4.055 -0.1556 -0.0193  0.0664
11849SOL    HW136988   6.095   1.938   4.119 -0.8663 -0.2906 -0.0386
11849SOL    HW236989   5.994   2.044   4.080 -1.9478 -2.1290 -2.4452
11850SOL     OW36990   2.873   0.596   7.720 -0.3208  0.8522  0.0732
11850SOL    HW136991   2.893   0.580   7.627  0.0628 -2.2859  0.5814
11850SOL    HW236992   2.931   0.537   7.767 -1.5705  1.2757  2.2503
11851SOL     OW36993   3.775   1.777   1.122 -0.9005 -0.3147 -0.2526
11851SOL    HW136994   3.806   1.791   1.211 -1.6451 -0.7224  0.0803
11851SOL    HW236995   3.837   1.715   1.084 -0.5372 -0.0803 -0.0537
11852SOL     OW36996   5.374   2.011   0.615  0.1284 -0.5620 -0.0713
11852SOL    HW136997   5.308   2.030   0.548 -1.1028 -0.4594  1.1163
11852SOL    HW236998   5.341   1.932   0.659  0.2739  0.0300  1.1540
11853SOL     OW36999   4.125   4.301   3.176 -0.4372 -0.0948  0.1890
11853SOL    HW137000   4.142   4.385   3.219 -2.4634 -0.9985  3.0257
11853SOL    HW237001   4.207   4.252   3.186 -0.0384  0.6750  0.7644
11854SOL     OW37002   7.715   6.512   6.193 -0.0009  0.0639 -0.1166
11854SOL    HW137003   7.800   6.471   6.210  0.3039 -0.7638 -3.0561
11854SOL    HW237004   7.678   6.462   6.120 -2.0104  1.7942 -0.3987
11855SOL     OW37005   4.897   7.071   4.935 -0.4684  0.2114 -0.3031
11855SOL    HW137006   4.963   7.014   4.897 -0.9907 -0.0741 -0.7903
11855SOL    HW237007   4.947   7.138   4.982  0.1539 -0.2677 -0.2735
11856SOL     OW37008   3.354   7.657  11.092 -0.4167 -0.7286 -0.0722
11856SOL    HW137009   3.400   7.593  11.147  1.1187  0.2209 -0.2221
11856SOL    HW237010   3.358   7.739  11.142 -0.7198 -0.3085 -0.7286
11857SOL     OW37011   7.130   1.610   3.158 -0.3133 -0.6554 -0.4641
11857SOL    HW137012   7.069   1.569   3.219  1.0907 -0.4096  1.1908
11857SOL    HW237013   7.147   1.544   3.091  0.4208 -2.1163  1.1001
11858SOL     OW37014   2.946   4.097   4.777  0.2679 -0.0852  0.4897
11858SOL    HW137015   2.949   4.030   4.709 -2.0066 -1.1142  1.3034
11858SOL    HW237016   2.853   4.108   4.797  0.6056  2.7463  1.0064
11859SOL     OW37017   5.211   4.352  10.882  0.2461  0.0320 -1.1769
11859SOL    HW137018   5.226   4.427  10.825  0.6493 -0.1680 -1.3350
11859SOL    HW237019   5.268   4.283  10.847  0.0295 -0.2845 -0.9111
11860SOL     OW37020   7.435   7.164  10.091  0.1231  0.1317 -0.5029
11860SOL    HW137021   7.398   7.192  10.007  0.5953 -0.2679 -0.8547
11860SOL    HW237022   7.523   7.134  10.069 -0.2688 -1.4048 -0.1128
11861SOL     OW37023   2.085   6.181   3.494  0.4496 -0.0404 -0.1649
11861SOL    HW137024   2.087   6.087   3.513 -1.9668  0.1970  1.7273
11861SOL    HW237025   1.994   6.200   3.474  0.9473  1.8909 -0.8538
11862SOL     OW37026   3.799   0.774  11.842 -0.1910 -0.2675 -0.1468
11862SOL    HW137027   3.793   0.762  11.747  4.3035 -0.5691 -0.6492
11862SOL    HW237028   3.832   0.864  11.852 -0.7258 -0.1993  1.1534
11863SOL     OW37029   0.257   0.016  11.837  0.0221  0.5565  0.3958
11863SOL    HW137030   0.192   0.087  11.842 -0.1877  0.3493  0.6120
11863SOL    HW237031   0.227  -0.039  11.766  0.8681  1.3607 -0.6122
11864SOL     OW37032   2.802   5.363  10.501 -0.3110 -0.2162  0.0060
11864SOL    HW137033   2.818   5.439  10.446  0.9468 -1.1282 -0.9634
11864SOL    HW237034   2.709   5.345  10.493 -0.2491  0.0207 -1.3775
11865SOL     OW37035   6.585   4.508   1.120 -0.2543 -0.3644  0.4225
11865SOL    HW137036   6.641   4.529   1.195  0.6384 -0.6238 -0.1528
11865SOL    HW237037   6.522   4.445   1.154 -1.0501  0.9309  1.4117
11866SOL     OW37038   3.209   3.948  10.312 -0.0462 -0.3714  0.0021
11866SOL    HW137039   3.278   3.977  10.253 -0.7825 -1.6236 -1.5183
11866SOL    HW237040   3.200   4.021  10.374  0.4091  1.2263 -1.7067
11867SOL     OW37041   7.820   6.517   7.852 -0.2624 -0.3790 -0.0680
11867SOL    HW137042   7.833   6.558   7.767 -0.6196  1.0707  0.5518
11867SOL    HW237043   7.897   6.462   7.864 -0.2165 -0.6276 -1.3203
11868SOL     OW37044   1.426   1.205   6.377  0.4245 -0.0540 -1.3396
11868SOL    HW137045   1.498   1.149   6.405  0.5583  0.8515  0.2159
11868SOL    HW237046   1.462   1.257   6.306  1.1801  0.0790 -0.8692
11869SOL     OW37047   1.358   4.838   8.044 -0.2063  0.2693  0.1723
11869SOL    HW137048   1.267   4.862   8.028 -0.8696 -1.6484  0.7376
11869SOL    HW237049   1.408   4.918   8.028 -2.1305  1.7970  1.3452
11870SOL     OW37050   1.253   1.110   1.951 -0.0185  0.2316 -0.2186
11870SOL    HW137051   1.194   1.080   1.882 -0.7134  1.5724 -0.2487
11870SOL    HW237052   1.260   1.204   1.937  0.0034  0.5027  1.3978
11871SOL     OW37053   0.207   5.895  10.661 -0.8054 -0.4615 -0.4258
11871SOL    HW137054   0.192   5.951  10.737 -3.0005 -0.5724 -0.7372
11871SOL    HW237055   0.291   5.925  10.626 -0.5216  0.6548  1.0887
11872SOL     OW37056   7.843   1.809   7.111 -0.4022 -0.0279 -0.1793
11872SOL    HW137057   7.898   1.822   7.188 -1.6844  0.1969  0.7415
11872SOL    HW237058   7.901   1.825   7.037  0.6377  0.6825  0.7505
11873SOL     OW37059   4.445   3.503   5.487  0.1143 -0.4541 -0.0923
11873SOL    HW137060   4.444   3.436   5.555  0.9750  1.3606  1.8147
11873SOL    HW237061   4.370   3.559   5.507  0.8574  0.5798 -0.1156
11874SOL     OW37062   4.479   3.443   5.212 -0.2663  0.2990  0.1278
11874SOL    HW137063   4.482   3.468   5.304  0.0323  1.0695 -0.0845
11874SOL    HW237064   4.567   3.411   5.192 -0.6951 -1.1473  0.4453
11875SOL     OW37065   7.959   1.366   0.722  0.1235 -0.4249 -0.2228
11875SOL    HW137066   7.865   1.386   0.722  0.1060 -0.4529  1.1734
11875SOL    HW237067   7.987   1.380   0.812  1.6664  0.4704 -0.7974
11876SOL     OW37068   4.368   5.361   0.466 -0.1014  0.6345  0.0803
11876SOL    HW137069   4.435   5.372   0.398  0.1557 -0.7243  0.0857
11876SOL    HW237070   4.417   5.348   0.547 -0.3840  0.5478  0.2386
11877SOL     OW37071   1.846   2.125   5.016 -0.1159 -0.0826  0.1251
11877SOL    HW137072   1.854   2.145   4.923 -0.3554  0.4700  0.2205
11877SOL    HW237073   1.928   2.157   5.054 -0.4751  0.6957  0.2689
11878SOL     OW37074   4.557   0.350   5.570 -0.0706 -0.3520  0.3791
11878SOL    HW137075   4.493   0.377   5.504 -0.4454 -0.8013  0.5582
11878SOL    HW237076   4.612   0.285   5.526  0.4569  0.2389  0.1356
11879SOL     OW37077   3.816   6.714   1.063  0.1213  0.0775  0.1158
11879SOL    HW137078   3.776   6.645   1.116  0.0452 -0.6297 -0.8482
11879SOL    HW237079   3.746   6.778   1.049  0.1738  0.3279  0.9548
11880SOL     OW37080   6.210   7.895   9.223  0.4107 -0.0546 -0.0684
11880SOL    HW137081   6.209   7.895   9.319 -0.2802 -1.9639 -0.0317
11880SOL    HW237082   6.227   7.804   9.199  0.3790  0.3512 -1.7711
11881SOL     OW37083   0.149   4.763   4.551 -0.1983  0.2257  0.3781
11881SOL    HW137084   0.140   4.740   4.458 -3.0875 -0.8831  0.8196
11881SOL    HW237085   0.131   4.857   4.554 -0.9107  0.1189 -0.1255
11882SOL     OW37086   2.900   5.907   4.554  0.1234  0.3228 -0.3285
11882SOL    HW137087   2.991   5.935   4.557  0.3976 -0.6018  1.1178
11882SOL    HW237088   2.868   5.920   4.643 -0.8630 -0.3054 -0.5683
11883SOL     OW37089   0.700   3.851   2.200 -0.3419 -0.4856 -0.7722
11883SOL    HW137090   0.742   3.875   2.282 -0.4304  0.4830 -0.9914
11883SOL    HW237091   0.713   3.757   2.192 -1.7304 -0.8958  1.1434
11884SOL     OW37092   4.441   6.684  12.047  0.2047  0.3946  0.4249
11884SOL    HW137093   4.393   6.751  11.999  0.0115  1.2832  1.8018
11884SOL    HW237094   4.517   6.665  11.993 -1.6087 -1.0536 -1.8253
11885SOL     OW37095   3.773   1.209   5.923 -0.3758 -0.0024 -0.1989
11885SOL    HW137096   3.726   1.290   5.945  1.7322  0.8536  1.4777
11885SOL    HW237097   3.848   1.238   5.871  0.7127 -0.7921  0.8908
11886SOL     OW37098   7.877   1.733   4.614  0.5445 -0.0051 -0.0899
11886SOL    HW137099   7.920   1.653   4.584  0.0575 -0.9293  1.5024
11886SOL    HW237100   7.789   1.705   4.637  0.4379  0.9361  0.7182
11887SOL     OW37101   7.483   5.321   3.254 -0.4035 -0.5045 -0.8261
11887SOL    HW137102   7.409   5.381   3.266 -1.9922 -2.3669 -0.7240
11887SOL    HW237103   7.542   5.367   3.195 -0.9650  1.6033  0.1365
11888SOL     OW37104   5.489   6.096   7.567 -0.4963 -0.5387 -0.6341
11888SOL    HW137105   5.559   6.077   7.630  1.7007  1.0071 -2.4485
11888SOL    HW237106   5.421   6.031   7.586  3.0626 -4.9417 -1.2651
11889SOL     OW37107   7.149   1.730  10.866 -0.1788 -0.2021  0.2154
11889SOL    HW137108   7.115   1.661  10.810 -0.9752  0.9571 -0.7838
11889SOL    HW237109   7.082   1.743  10.933  0.1780 -0.6897  0.6767
11890SOL     OW37110   0.014   1.543  11.797 -0.3629 -0.1040 -0.0144
11890SOL    HW137111   0.093   1.590  11.823 -0.4675  0.6203 -0.9493
11890SOL    HW237112  -0.037   1.608  11.748 -1.1537 -0.8009 -0.1385
11891SOL     OW37113   6.210   1.445   6.462 -0.0014 -0.0470  0.0138
11891SOL    HW137114   6.174   1.382   6.399 -0.1925  0.2519 -0.1781
11891SOL    HW237115   6.177   1.415   6.547  1.6640 -1.4745  0.2119
11892SOL     OW37116   5.278   4.764   5.924 -0.2337 -0.2403  0.4873
11892SOL    HW137117   5.336   4.751   5.849 -0.9329  0.9599 -0.2998
11892SOL    HW237118   5.294   4.855   5.951 -0.8401 -0.2911  1.0397
11893SOL     OW37119   2.295   0.441   4.076 -0.5907  0.2014  0.2407
11893SOL    HW137120   2.257   0.453   3.989  0.4273 -0.4827 -0.3192
11893SOL    HW237121   2.235   0.486   4.135 -1.0410  1.0876 -0.8699
11894SOL     OW37122   0.993   6.958   6.230 -0.6604  0.2767 -0.1968
11894SOL    HW137123   0.900   6.948   6.252 -0.4310  0.5931  1.0021
11894SOL    HW237124   1.004   7.053   6.218 -0.2199  0.4012  1.0519
11895SOL     OW37125   3.851   5.013  11.465 -0.3188 -0.3684 -0.1802
11895SOL    HW137126   3.860   4.959  11.387  1.0674  1.0783 -1.0887
11895SOL    HW237127   3.826   4.952  11.534  0.7157 -2.0666 -1.2427
11896SOL     OW37128   7.355   3.552   3.145  0.3648  0.7324 -0.7711
11896SOL    HW137129   7.377   3.598   3.064 -0.9726 -0.8910 -2.1427
11896SOL    HW237130   7.260   3.541   3.141  0.2113  0.9224  1.2279
11897SOL     OW37131   3.615   5.486   8.365 -0.2632  0.4573  0.3036
11897SOL    HW137132   3.697   5.437   8.373 -0.7046 -0.1362  1.4928
11897SOL    HW237133   3.549   5.428   8.404 -1.0315  1.4355  0.4955
11898SOL     OW37134   3.203   5.962   0.225  0.5148 -0.7976 -0.2944
11898SOL    HW137135   3.159   5.922   0.150 -1.0099 -1.2765  0.7927
11898SOL    HW237136   3.209   5.891   0.290 -1.4278  0.4085  1.3355
11899SOL     OW37137   0.075   2.376  12.256 -0.5277 -0.5885 -0.1486
11899SOL    HW137138   0.137   2.356  12.186  0.3330 -1.1780  0.7411
11899SOL    HW237139   0.020   2.298  12.263  0.7519 -1.4244  1.1914
11900SOL     OW37140   0.646   2.526   5.180 -0.2462  0.0126  0.4143
11900SOL    HW137141   0.735   2.508   5.213 -0.3046  1.3879  1.3929
11900SOL    HW237142   0.652   2.612   5.140 -0.6796 -0.7787 -1.4642
11901SOL     OW37143   0.129   5.499   5.537  0.3154  0.1547 -0.8383
11901SOL    HW137144   0.222   5.488   5.517  0.4875  0.4468 -0.2226
11901SOL    HW237145   0.105   5.417   5.582 -0.0978 -0.5472 -2.2960
11902SOL     OW37146   2.363   7.225   8.264  0.2743 -0.7616  0.1151
11902SOL    HW137147   2.310   7.304   8.272  0.4806 -0.7229  1.5208
11902SOL    HW237148   2.443   7.254   8.220  0.5401 -0.0692  1.0224
11903SOL     OW37149   1.319   1.640   9.920  0.2374 -0.1041  0.7723
11903SOL    HW137150   1.274   1.603   9.996 -2.0565 -1.5420 -1.1534
11903SOL    HW237151   1.319   1.734   9.936 -2.1023 -0.1847  1.6294
11904SOL     OW37152   5.779   7.907   7.217 -0.3117  0.0247 -0.4217
11904SOL    HW137153   5.842   7.881   7.284  0.2578 -2.1823 -1.7035
11904SOL    HW237154   5.832   7.954   7.152 -0.4664  0.4022 -0.2710
11905SOL     OW37155   6.956   7.707   4.242 -0.0058  0.0508  0.2739
11905SOL    HW137156   6.926   7.704   4.333 -1.7818  1.0658 -0.2460
11905SOL    HW237157   7.007   7.788   4.236 -0.6104  0.4227  0.1558
11906SOL     OW37158   6.144   4.062   6.634  0.0591 -0.4349 -0.0706
11906SOL    HW137159   6.083   3.989   6.626  0.8686 -1.3180  1.4599
11906SOL    HW237160   6.215   4.041   6.573 -1.0037  0.5114 -1.7286
11907SOL     OW37161   5.907   5.544   4.648 -0.2895  0.2641  0.0474
11907SOL    HW137162   5.947   5.559   4.734  0.7924  2.6487 -0.7798
11907SOL    HW237163   5.877   5.453   4.651  1.8796 -0.4875  2.0799
11908SOL     OW37164   1.118   5.274   8.980 -0.0147  0.2836 -0.0052
11908SOL    HW137165   1.199   5.304   9.021  1.6128  1.6655 -3.7683
11908SOL    HW237166   1.118   5.316   8.894 -3.4554 -1.7657 -1.1933
11909SOL     OW37167   5.738   0.248   9.710 -0.3000  0.5519 -0.2224
11909SOL    HW137168   5.827   0.246   9.674 -0.8346  1.4320 -1.6776
11909SOL    HW237169   5.682   0.226   9.636 -1.4273  2.0601  0.1433
11910SOL     OW37170   2.380   2.341   1.648 -0.2481  0.3586  0.0175
11910SOL    HW137171   2.344   2.390   1.722 -2.5419  2.0436 -2.0391
11910SOL    HW237172   2.442   2.402   1.607 -0.5099  0.2285 -0.5821
11911SOL     OW37173   4.991   2.608   4.856 -0.0551  0.1004  0.0248
11911SOL    HW137174   5.060   2.665   4.822 -0.1580 -1.0556 -2.3260
11911SOL    HW237175   5.007   2.523   4.814 -2.0950 -0.5659  0.4814
11912SOL     OW37176   5.221   2.702   3.624 -0.3929  0.8794  0.1657
11912SOL    HW137177   5.163   2.651   3.682  0.2429  1.5676  1.4648
11912SOL    HW237178   5.302   2.651   3.621 -0.1809  1.1940  0.4710
11913SOL     OW37179   5.014   3.130   3.878 -0.3254 -0.0202  0.4345
11913SOL    HW137180   4.996   3.077   3.956 -0.3145 -0.3094  0.2455
11913SOL    HW237181   5.098   3.097   3.846 -0.1530  0.3487  0.5085
11914SOL     OW37182   4.909   0.849   3.818  0.2093  0.4681  0.3146
11914SOL    HW137183   4.941   0.919   3.762  0.9331  0.8873  1.2363
11914SOL    HW237184   4.829   0.884   3.857  0.3196  0.6059  0.4169
11915SOL     OW37185   4.621   7.343   2.976 -0.0704 -0.0601 -0.1869
11915SOL    HW137186   4.707   7.335   2.936  0.2726  0.5662  0.4083
11915SOL    HW237187   4.597   7.254   3.000 -0.4111 -0.5113 -1.9928
11916SOL     OW37188   3.538   0.878   7.596 -0.7195 -0.2837 -0.1637
11916SOL    HW137189   3.543   0.783   7.609 -0.6420 -0.5544 -1.8690
11916SOL    HW237190   3.543   0.888   7.501 -1.3176  1.4060 -0.0308
11917SOL     OW37191   4.585   2.114  11.885 -0.2828  0.5087 -0.5277
11917SOL    HW137192   4.500   2.099  11.845 -0.8318 -1.5234  1.1974
11917SOL    HW237193   4.622   2.026  11.895  0.9516  1.1562  0.9470
11918SOL     OW37194   1.209   3.829   3.659 -0.0480 -0.2909 -0.1926
11918SOL    HW137195   1.230   3.767   3.729  2.3899 -0.1703 -0.7320
11918SOL    HW237196   1.274   3.812   3.591 -0.0001  2.1032 -0.8405
11919SOL     OW37197   7.225   5.922  10.308  0.4109 -0.2163 -0.3982
11919SOL    HW137198   7.214   5.933  10.403  0.0551  0.1969 -0.4838
11919SOL    HW237199   7.164   5.985  10.270  0.7596 -0.1860 -0.9032
11920SOL     OW37200   0.122   3.270   9.966 -0.9854 -0.2628  0.7378
11920SOL    HW137201   0.205   3.224   9.980 -0.1284  1.3412  1.1305
11920SOL    HW237202   0.138   3.327   9.891 -1.9935 -0.4965  0.3335
11921SOL     OW37203   4.269   6.913   0.264  0.6092  0.2419  0.1060
11921SOL    HW137204   4.348   6.930   0.212  0.3861 -0.1694 -0.3769
11921SOL    HW237205   4.277   6.821   0.290 -0.2677 -0.1513 -0.9378
11922SOL     OW37206   4.160   5.964   7.913  0.2778 -0.3602  0.4305
11922SOL    HW137207   4.203   6.010   7.985  1.1639 -0.0017 -0.3090
11922SOL    HW237208   4.178   5.871   7.930  2.4134 -0.1817 -0.4622
11923SOL     OW37209   1.232   1.194   5.835  0.0833 -0.1207  0.4962
11923SOL    HW137210   1.327   1.197   5.834  0.0769  0.3335  0.8125
11923SOL    HW237211   1.206   1.252   5.763  0.0409  0.6794  1.1393
11924SOL     OW37212   4.556   3.511  11.238 -0.3325  0.3025  0.0509
11924SOL    HW137213   4.497   3.546  11.305 -1.6343  0.3913 -1.0967
11924SOL    HW237214   4.638   3.559  11.252 -0.4745  0.1141  1.7400
11925SOL     OW37215   3.731   6.856   9.964 -0.0137  0.5578 -0.0300
11925SOL    HW137216   3.795   6.927   9.950 -0.0430  0.7012  0.5360
11925SOL    HW237217   3.781   6.788  10.009 -0.1110  0.4322 -0.1157
11926SOL     OW37218   1.521   7.374  12.177 -0.2847 -0.0821 -0.3249
11926SOL    HW137219   1.585   7.358  12.247 -0.2679  0.4127 -0.2239
11926SOL    HW237220   1.475   7.454  12.204 -2.6678 -1.7482  0.8462
11927SOL     OW37221   3.014   5.636   8.653  0.0649  0.5908  0.5709
11927SOL    HW137222   3.042   5.640   8.562 -1.3115 -2.2009 -0.0639
11927SOL    HW237223   2.933   5.687   8.656 -0.4044 -0.1154 -0.0014
11928SOL     OW37224   4.491   7.382   7.997  0.5730  0.2050 -0.0004
11928SOL    HW137225   4.433   7.424   7.933  0.4098  0.1237  0.0935
11928SOL    HW237226   4.486   7.289   7.976  1.2440  0.2680 -0.4634
11929SOL     OW37227   6.537   0.691  11.885 -0.3711 -0.1966 -0.1089
11929SOL    HW137228   6.506   0.648  11.805 -0.2022  0.3662 -0.4819
11929SOL    HW237229   6.533   0.785  11.865 -0.4500 -0.0487  0.5918
11930SOL     OW37230   5.840   6.662   5.211  0.1041  0.6631 -0.1997
11930SOL    HW137231   5.751   6.655   5.177 -0.6523  1.9364  1.4065
11930SOL    HW237232   5.830   6.657   5.306  2.1445 -2.8608  0.0031
11931SOL     OW37233   5.987   3.541   4.768  0.0859 -0.0450  0.3192
11931SOL    HW137234   6.041   3.462   4.766 -0.9135 -0.7244 -0.7578
11931SOL    HW237235   5.923   3.528   4.699  1.4067  2.8179 -1.6314
11932SOL     OW37236   7.443   5.945   2.251 -0.0581 -0.0417  0.2704
11932SOL    HW137237   7.531   5.907   2.249  0.2464  0.2206  3.6052
11932SOL    HW237238   7.406   5.925   2.165  1.2031 -5.0495  0.6107
11933SOL     OW37239   4.311   3.316   3.190 -0.4143 -0.2594  0.6372
11933SOL    HW137240   4.382   3.263   3.154  0.2972 -0.4782  2.2595
11933SOL    HW237241   4.231   3.269   3.163  0.0323 -0.1144 -1.0365
11934SOL     OW37242   4.152   2.256  10.498 -0.0334 -0.0467 -0.0825
11934SOL    HW137243   4.205   2.208  10.434 -1.4935 -1.9639  0.0438
11934SOL    HW237244   4.141   2.343  10.459  1.2663 -0.3384 -1.1843
11935SOL     OW37245   5.700   2.402   7.057  0.6661  0.1939  0.4210
11935SOL    HW137246   5.658   2.399   7.143  0.8273  0.0025  0.4959
11935SOL    HW237247   5.628   2.399   6.994  0.5310  0.6702  0.5485
11936SOL     OW37248   0.820   7.312   6.904 -0.1124  0.4371  0.1195
11936SOL    HW137249   0.829   7.271   6.990 -0.9714 -1.3448 -0.5652
11936SOL    HW237250   0.836   7.240   6.843  1.2384  1.8240 -1.2525
11937SOL     OW37251   7.385   3.724   9.106  0.4361  0.4991 -0.2755
11937SOL    HW137252   7.469   3.679   9.094  0.6559  0.2140  1.8279
11937SOL    HW237253   7.382   3.744   9.200 -2.2070 -0.2255 -0.1239
11938SOL     OW37254   4.769   2.151   8.772  0.0665  0.4310  0.2022
11938SOL    HW137255   4.851   2.198   8.787  0.0713  0.1383  1.1314
11938SOL    HW237256   4.794   2.059   8.768 -0.1752  0.3668  0.1621
11939SOL     OW37257   5.291   0.380   0.125  0.0518  0.2875 -0.2489
11939SOL    HW137258   5.377   0.419   0.140 -0.0036  0.4267 -0.2921
11939SOL    HW237259   5.263   0.350   0.212  0.1841  0.1573 -0.2508
11940SOL     OW37260   3.105   1.356   9.648 -0.6078  0.5485  0.2111
11940SOL    HW137261   3.122   1.407   9.569 -1.1156 -1.0244 -0.9537
11940SOL    HW237262   3.167   1.390   9.712 -0.4791  2.1583 -0.7103
11941SOL     OW37263   3.225   4.169  10.053  0.3391  0.0443 -0.0605
11941SOL    HW137264   3.242   4.199   9.963  0.5279  1.5471  0.4473
11941SOL    HW237265   3.296   4.108  10.072 -0.1137 -0.8689 -1.1704
11942SOL     OW37266   5.904   7.110   6.840  0.1286  0.0557  0.1766
11942SOL    HW137267   5.982   7.074   6.882  1.4547  0.6575 -1.6116
11942SOL    HW237268   5.906   7.074   6.751 -1.1998  0.6952 -0.1447
11943SOL     OW37269   3.480   7.749  11.806  0.0894  0.2138  0.0241
11943SOL    HW137270   3.479   7.745  11.902  0.1156  1.5159  0.0989
11943SOL    HW237271   3.388   7.749  11.781  0.0754 -1.7141 -0.0672
11944SOL     OW37272   7.691   1.119  11.967 -0.1709  0.1196  0.6978
11944SOL    HW137273   7.698   1.211  11.943  1.6444  0.8358  3.4545
11944SOL    HW237274   7.639   1.119  12.048  0.7324 -1.1230  1.3146
11945SOL     OW37275   4.145   2.765   4.999 -0.4458 -0.4670 -0.5278
11945SOL    HW137276   4.119   2.799   5.085 -0.9666  1.0410 -1.2326
11945SOL    HW237277   4.132   2.839   4.940 -1.6977 -1.9492 -2.2027
11946SOL     OW37278   3.764   5.451   2.830  0.2532 -0.7545  0.5523
11946SOL    HW137279   3.829   5.479   2.766  0.1083  0.2032  0.8157
11946SOL    HW237280   3.761   5.356   2.820  0.8392 -0.6995 -0.2742
11947SOL     OW37281   4.529   0.058   2.995 -0.0876  0.7057  0.3701
11947SOL    HW137282   4.622   0.074   3.008  0.2438 -1.5086  1.1153
11947SOL    HW237283   4.492   0.051   3.083 -0.2888 -1.6656  0.1532
11948SOL     OW37284   1.862   0.835   0.092 -0.3844 -0.0145  0.2736
11948SOL    HW137285   1.788   0.815   0.035 -0.0366 -1.8356  0.3692
11948SOL    HW237286   1.934   0.782   0.058  0.9082  1.7101  0.1797
11949SOL     OW37287   6.032   7.147  11.662 -0.8718 -0.2429 -0.4606
11949SOL    HW137288   5.947   7.188  11.680 -1.4224 -1.9707  1.1349
11949SOL    HW237289   6.095   7.202  11.710 -1.5982 -1.1355  1.6459
11950SOL     OW37290   3.034   3.161   7.506 -0.1176 -0.7926  0.7636
11950SOL    HW137291   3.127   3.143   7.512 -0.0318 -0.5613  0.1853
11950SOL    HW237292   2.992   3.094   7.560  0.0437 -3.8381 -2.5151
11951SOL     OW37293   0.983   5.994  11.394  0.4217 -0.4252  0.1499
11951SOL    HW137294   1.037   6.044  11.454 -0.0895  1.7344 -1.1000
11951SOL    HW237295   1.041   5.975  11.320 -0.1658  0.9167 -0.6860
11952SOL     OW37296   0.822   3.172   7.249  0.2970  0.2621 -0.1362
11952SOL    HW137297   0.814   3.228   7.172  1.4733  2.2229  1.0955
11952SOL    HW237298   0.887   3.106   7.224  1.8509  1.8223 -0.3244
11953SOL     OW37299   3.708   4.306   7.541 -0.5966  0.1888 -0.0084
11953SOL    HW137300   3.785   4.361   7.560 -0.8906 -0.1492  2.5202
11953SOL    HW237301   3.634   4.365   7.550 -0.7303  0.2115 -1.1385
11954SOL     OW37302   4.304   5.182   8.874 -0.1085  0.2933 -0.0827
11954SOL    HW137303   4.296   5.146   8.963  1.8896  0.3022  0.1481
11954SOL    HW237304   4.214   5.181   8.840 -0.5348 -2.5494  0.8200
11955SOL     OW37305   4.495   2.169  11.521 -0.7316 -0.2957  0.5999
11955SOL    HW137306   4.506   2.081  11.557 -1.2356 -0.3320  0.6622
11955SOL    HW237307   4.411   2.167  11.476 -1.9497  0.8335  2.6628
11956SOL     OW37308   3.519   5.312   6.495  0.2221 -0.7188  0.4868
11956SOL    HW137309   3.590   5.306   6.432  0.0644  0.5308  0.1548
11956SOL    HW237310   3.445   5.269   6.453 -0.2531  1.1931 -0.7925
11957SOL     OW37311   0.671   3.366   2.319 -0.1000  0.4093  0.0033
11957SOL    HW137312   0.729   3.329   2.253  0.1251 -0.4709  0.6679
11957SOL    HW237313   0.680   3.460   2.309  1.5817  0.3025  0.1950
11958SOL     OW37314   5.475   3.667   1.442  0.0154  0.4518  0.0786
11958SOL    HW137315   5.408   3.606   1.473  2.0581 -0.8887  2.2700
11958SOL    HW237316   5.534   3.613   1.390  0.7401  1.0002  0.3091
11959SOL     OW37317   2.487   1.806   4.204  0.3215 -0.1874 -0.3948
11959SOL    HW137318   2.415   1.744   4.202 -1.4743  1.7856 -0.1542
11959SOL    HW237319   2.505   1.825   4.112  0.0329 -0.1353 -0.4414
11960SOL     OW37320   5.453   5.856   4.637  0.4128 -0.0898  0.3819
11960SOL    HW137321   5.407   5.827   4.716  0.2286 -3.8264 -0.9135
11960SOL    HW237322   5.540   5.819   4.645  0.2210 -1.0225 -1.3529
11961SOL     OW37323   2.843   6.721   6.704 -0.1861  0.2887 -0.0280
11961SOL    HW137324   2.906   6.741   6.774  0.1871  1.2772 -0.6259
11961SOL    HW237325   2.763   6.698   6.751  0.4883 -0.5795  0.7420
11962SOL     OW37326   2.481   4.422  12.417  0.3265 -0.0552  0.1653
11962SOL    HW137327   2.449   4.512  12.413  1.7570  0.4994  0.5328
11962SOL    HW237328   2.576   4.430  12.411  0.4383 -1.6035 -0.5113
11963SOL     OW37329   7.048   3.196   9.314  0.3913  0.0916 -0.0145
11963SOL    HW137330   7.110   3.122   9.308  0.6469  0.2991  0.0336
11963SOL    HW237331   7.069   3.251   9.239 -1.6876 -1.2864 -1.7224
11964SOL     OW37332   6.437   6.268  10.704  0.6732 -0.7128 -0.0887
11964SOL    HW137333   6.389   6.262  10.621  0.1086 -0.2669  0.2040
11964SOL    HW237334   6.470   6.179  10.718 -1.9748 -1.6494  0.8510
11965SOL     OW37335   2.973   6.296   7.149  0.3668  0.0559  0.3002
11965SOL    HW137336   2.974   6.371   7.090  0.7104 -0.7407 -0.7598
11965SOL    HW237337   3.033   6.233   7.108  0.3164 -0.6788  1.3078
11966SOL     OW37338   7.110   5.566   0.042  0.3008  0.4934  0.5719
11966SOL    HW137339   7.127   5.494   0.103 -1.5962 -0.8374 -0.3667
11966SOL    HW237340   7.047   5.622   0.088  1.7227  1.6050  1.2734
11967SOL     OW37341   6.933   7.264   7.797 -0.0411  0.0229 -0.1063
11967SOL    HW137342   7.016   7.310   7.789 -0.0200  0.3445  1.6089
11967SOL    HW237343   6.899   7.259   7.707  0.5728  2.1880 -0.5102
11968SOL     OW37344   1.346   6.753  10.199 -0.7271  0.5229  0.1232
11968SOL    HW137345   1.387   6.705  10.271  2.5292  1.3451 -1.0415
11968SOL    HW237346   1.265   6.787  10.237 -0.1584 -0.7732  2.7544
11969SOL     OW37347   3.096   5.301   3.348 -0.0698 -0.3333 -0.1515
11969SOL    HW137348   3.187   5.331   3.341 -0.4567  1.1010  0.6119
11969SOL    HW237349   3.062   5.345   3.426 -1.7013 -0.1317 -0.9398
11970SOL     OW37350   4.828   4.136   8.055  0.1268 -0.0849  0.5122
11970SOL    HW137351   4.758   4.183   8.100  1.3827 -0.0832  2.5624
11970SOL    HW237352   4.795   4.046   8.045 -1.0537  0.4442 -0.6760
11971SOL     OW37353   0.983   0.270   5.600 -0.4522  0.1170  0.5117
11971SOL    HW137354   0.949   0.203   5.660 -0.4738 -1.3161 -1.0297
11971SOL    HW237355   0.921   0.342   5.606 -0.7249 -0.2041  1.8107
11972SOL     OW37356   6.513   5.605  11.909 -0.2993  0.3384  0.0139
11972SOL    HW137357   6.511   5.598  12.004  0.8122  2.6265  0.2900
11972SOL    HW237358   6.449   5.674  11.889 -0.4570 -0.0593 -0.8851
11973SOL     OW37359   4.159   2.375   6.036 -0.6970  0.2436  0.2672
11973SOL    HW137360   4.175   2.374   5.942  1.8002  2.5121  0.5180
11973SOL    HW237361   4.070   2.409   6.045 -1.2583 -0.7203 -1.2320
11974SOL     OW37362   7.762   5.693   3.955  0.4652  0.1002  0.7412
11974SOL    HW137363   7.786   5.767   3.899  1.9414 -1.2624 -0.5585
11974SOL    HW237364   7.676   5.716   3.989 -0.4373  1.1628 -1.9224
11975SOL     OW37365   5.876   4.169   0.993  0.0124 -0.2770 -0.0881
11975SOL    HW137366   5.812   4.205   0.932  0.2113 -0.9713 -0.7094
11975SOL    HW237367   5.835   4.179   1.079 -0.0024  1.2795 -0.2566
11976SOL     OW37368   6.676   2.893   8.470 -0.0067  0.1609 -0.3865
11976SOL    HW137369   6.660   2.825   8.405  1.0568  0.1784 -0.6880
11976SOL    HW237370   6.760   2.931   8.445  0.0888  0.6358  0.5986
11977SOL     OW37371   2.618   0.849   7.706 -0.1471  0.5155  0.1490
11977SOL    HW137372   2.628   0.796   7.786 -1.7241  0.6531  0.4733
11977SOL    HW237373   2.581   0.788   7.642  2.6930 -0.0649 -1.0824
11978SOL     OW37374   2.975   1.497  10.415  0.2656 -0.7382 -0.6227
11978SOL    HW137375   3.027   1.444  10.475 -1.1497 -1.8077 -0.2968
11978SOL    HW237376   3.013   1.479  10.329  1.2501 -0.4749 -0.2632
11979SOL     OW37377   5.497   1.741  11.928 -0.0395 -0.1020  0.2285
11979SOL    HW137378   5.427   1.761  11.867  0.1648  0.1229  0.0691
11979SOL    HW237379   5.508   1.646  11.922  0.4940  0.0095 -0.6430
11980SOL     OW37380   0.477   4.443   6.608 -0.3436 -0.2777 -0.2814
11980SOL    HW137381   0.456   4.350   6.617  0.3250 -0.4165 -0.1002
11980SOL    HW237382   0.572   4.445   6.596 -0.3015  0.4136  0.1513
11981SOL     OW37383   6.706   2.276  10.695 -0.0534 -0.0314 -0.2017
11981SOL    HW137384   6.641   2.240  10.635  0.9332 -1.3617 -0.5486
11981SOL    HW237385   6.747   2.348  10.647  0.1781 -0.5713 -0.8233
11982SOL     OW37386   3.074   7.059   8.863 -0.2316 -0.1457 -0.1163
11982SOL    HW137387   3.137   6.988   8.849 -2.0795 -1.9966  0.4207
11982SOL    HW237388   3.045   7.048   8.954 -1.0329  0.9193 -0.2257
11983SOL     OW37389   0.120   2.053   2.288  0.7443  0.5700  0.6589
11983SOL    HW137390   0.103   2.095   2.373  2.1303 -1.4512  2.0298
11983SOL    HW237391   0.213   2.068   2.272  0.6704  0.2402 -0.1086
11984SOL     OW37392   0.140   0.835   8.240  0.9066  0.2250 -0.5364
11984SOL    HW137393   0.118   0.921   8.278 -0.3884  1.2424 -3.3258
11984SOL    HW237394   0.064   0.813   8.186  0.6969 -3.2900  0.9064
11985SOL     OW37395   5.017   6.215   4.321  0.2984 -0.2256  0.0272
11985SOL    HW137396   4.989   6.163   4.246 -0.7264  1.4503 -0.8094
11985SOL    HW237397   5.113   6.212   4.317  0.2689 -0.2948 -1.2778
11986SOL     OW37398   5.355   4.112   6.001 -0.1745  0.4234  0.5310
11986SOL    HW137399   5.443   4.123   5.967 -0.7993 -0.9988 -1.7711
11986SOL    HW237400   5.366   4.061   6.081  1.0514 -0.7268 -0.3304
11987SOL     OW37401   2.636   7.075   7.291  0.1826 -0.9897  0.3433
11987SOL    HW137402   2.589   7.085   7.208 -0.7517  0.9636  1.0559
11987SOL    HW237403   2.727   7.096   7.269 -0.0958 -0.2657 -0.1609
11988SOL     OW37404   7.430   0.010   2.558  0.0816  0.0827  0.4376
11988SOL    HW137405   7.335   0.003   2.554 -0.0690  1.6437  0.5055
11988SOL    HW237406   7.446   0.076   2.625  1.1345  1.1427 -0.8018
11989SOL     OW37407   6.871   7.696   4.514 -0.8149  0.4014 -0.4209
11989SOL    HW137408   6.890   7.776   4.562 -0.2936 -0.5671  1.0699
11989SOL    HW237409   6.776   7.690   4.514 -0.8236 -0.1425  1.5501
11990SOL     OW37410   6.038   7.959   8.045  0.5070  0.3431  0.0145
11990SOL    HW137411   6.083   7.982   8.126  1.7774 -3.0507  0.4304
11990SOL    HW237412   5.986   7.882   8.067  0.7977 -0.6014 -2.3098
11991SOL     OW37413   1.603   3.729   9.540  0.1649 -0.4266  0.6546
11991SOL    HW137414   1.617   3.674   9.617 -0.6239 -1.8121 -0.1677
11991SOL    HW237415   1.508   3.730   9.527  0.3838 -2.7527 -2.0413
11992SOL     OW37416   4.417   4.127   9.738  0.6244 -0.4418 -0.0570
11992SOL    HW137417   4.423   4.040   9.779  0.4203  0.1724  1.3519
11992SOL    HW237418   4.367   4.113   9.658 -1.5077 -1.2629  1.3291
11993SOL     OW37419   2.539   1.604   8.759 -0.3480 -0.0619 -0.0477
11993SOL    HW137420   2.474   1.669   8.731 -1.2375 -1.2653 -0.8896
11993SOL    HW237421   2.491   1.521   8.759  0.8745 -0.7885  0.5755
11994SOL     OW37422   4.309   4.835   5.982  0.1352  0.0141 -0.9484
11994SOL    HW137423   4.245   4.861   6.048  0.0017 -0.2270 -0.9813
11994SOL    HW237424   4.377   4.903   5.986  1.3013 -1.1975  1.0338
11995SOL     OW37425   4.418   2.431  11.585  0.3963 -0.1188 -0.3665
11995SOL    HW137426   4.490   2.459  11.529  0.3707 -1.2595 -0.9871
11995SOL    HW237427   4.412   2.336  11.573  2.3327 -0.9870  3.7724
11996SOL     OW37428   7.406   6.838   5.014 -0.4901 -0.4751  0.2637
11996SOL    HW137429   7.429   6.930   4.999 -0.3856 -0.4859  0.3574
11996SOL    HW237430   7.324   6.826   4.966  0.8093 -1.0369 -2.0013
11997SOL     OW37431   2.159   7.951   7.661 -0.5368  0.1745  0.4367
11997SOL    HW137432   2.162   8.040   7.695  1.4387  0.5434 -0.5432
11997SOL    HW237433   2.075   7.946   7.615 -1.7825  0.6843  2.5493
11998SOL     OW37434   4.640   5.996   4.840 -0.2920  0.0445 -0.4372
11998SOL    HW137435   4.680   6.013   4.925 -1.0775  1.1733 -0.2781
11998SOL    HW237436   4.583   6.071   4.825 -0.1802 -0.1523 -1.9606
11999SOL     OW37437   6.328   2.827   8.733 -0.2029  0.4529  0.1689
11999SOL    HW137438   6.358   2.811   8.822  1.0272 -2.0244 -0.5764
11999SOL    HW237439   6.407   2.850   8.685  0.3043 -3.5383 -1.2787
12000SOL     OW37440   1.073   5.855   5.534 -0.4260 -0.4351  0.0876
12000SOL    HW137441   1.120   5.916   5.590 -2.3611 -0.8164  2.2800
12000SOL    HW237442   1.141   5.796   5.501  1.0438  1.0323  0.3724
12001SOL     OW37443   7.154   6.630   1.452 -0.2204  0.0795 -0.1409
12001SOL    HW137444   7.096   6.590   1.516 -0.4741  1.3144  0.4210
12001SOL    HW237445   7.234   6.577   1.457 -0.8973 -0.9980 -0.1916
12002SOL     OW37446   2.856   2.599   0.131  0.1414 -0.7848 -0.3495
12002SOL    HW137447   2.909   2.666   0.090  0.4525 -1.1601 -0.5678
12002SOL    HW237448   2.872   2.610   0.225 -1.4209  0.7844 -0.2177
12003SOL     OW37449   3.070   5.884   6.866  0.2832  0.7691 -0.1310
12003SOL    HW137450   3.159   5.858   6.839  0.6660  0.6796  1.1600
12003SOL    HW237451   3.027   5.909   6.784  1.9051  2.0654 -0.6472
12004SOL     OW37452   0.629   7.943   5.094 -0.0602 -0.3739 -0.3663
12004SOL    HW137453   0.541   7.960   5.127 -0.3608 -0.7856 -0.9284
12004SOL    HW237454   0.647   7.852   5.120  0.2817 -0.2359 -0.0934
12005SOL     OW37455   1.111   5.703  12.442 -0.3726 -0.2541  0.3964
12005SOL    HW137456   1.049   5.637  12.472  0.3523 -0.6908  0.9611
12005SOL    HW237457   1.063   5.786  12.449 -1.6972 -0.7845 -1.4244
12006SOL     OW37458   5.006   5.398   9.929  0.0524  0.2048  0.6276
12006SOL    HW137459   5.096   5.412   9.900  0.6090 -2.6199  0.6956
12006SOL    HW237460   4.955   5.393   9.848  0.2789  0.0040  0.4954
12007SOL     OW37461   4.118   7.822   6.100  0.6052 -0.5376  0.0242
12007SOL    HW137462   4.119   7.772   6.181 -1.0256 -0.1450  0.3176
12007SOL    HW237463   4.135   7.912   6.128 -0.6777 -0.2847  0.0509
12008SOL     OW37464   3.366   4.856   5.309 -0.0745 -0.3102 -0.1169
12008SOL    HW137465   3.394   4.807   5.386 -0.7700 -1.0474 -0.3092
12008SOL    HW237466   3.366   4.948   5.336 -1.1813 -0.6231  1.0611
12009SOL     OW37467   7.538   5.531   6.653  0.0665 -0.0799  0.7296
12009SOL    HW137468   7.573   5.467   6.715  0.1807 -1.6629 -0.8913
12009SOL    HW237469   7.461   5.489   6.616  0.4967  0.4467 -0.8266
12010SOL     OW37470   6.290   4.090   2.754 -0.3982  0.2810  0.0827
12010SOL    HW137471   6.291   4.104   2.849 -1.3846  1.1114 -0.0179
12010SOL    HW237472   6.261   4.173   2.717  0.8515  0.2481 -1.0187
12011SOL     OW37473   0.723   3.790   6.848  0.0913  0.2686 -0.2078
12011SOL    HW137474   0.758   3.798   6.937  1.1971  1.2017 -0.7153
12011SOL    HW237475   0.793   3.750   6.798  0.5195  2.2295 -1.2618
12012SOL     OW37476   6.017   4.062  10.897 -0.3901 -0.5792 -0.3518
12012SOL    HW137477   5.950   3.999  10.872 -0.4342 -1.0187  0.7923
12012SOL    HW237478   5.972   4.122  10.957 -0.0456 -0.1953 -0.4730
12013SOL     OW37479   4.723   4.430   7.546  0.0822  0.5527 -0.3001
12013SOL    HW137480   4.679   4.443   7.630  0.2533  1.0881 -0.2926
12013SOL    HW237481   4.812   4.462   7.560  0.8469 -1.5457  0.0153
12014SOL     OW37482   6.143   5.807   1.202 -0.0953  0.3524  0.2329
12014SOL    HW137483   6.107   5.847   1.281 -0.2299 -0.4642  0.5920
12014SOL    HW237484   6.080   5.830   1.133 -0.2409  0.6403  0.4566
12015SOL     OW37485   5.349   0.564   7.372 -0.2574  0.0239  0.7223
12015SOL    HW137486   5.437   0.597   7.351 -0.6157  1.4510  1.3057
12015SOL    HW237487   5.364   0.503   7.444  0.2549  0.4003  0.9515
12016SOL     OW37488   2.796   3.228  10.475  0.3154  0.3373  0.3225
12016SOL    HW137489   2.727   3.208  10.539  0.6471 -1.0340  0.2867
12016SOL    HW237490   2.860   3.158  10.487  1.3387  1.1728 -0.1690
12017SOL     OW37491   3.956   4.968   0.852  0.1000 -0.2104  0.2247
12017SOL    HW137492   3.991   5.047   0.892  0.0007  0.9446 -1.8141
12017SOL    HW237493   3.874   4.996   0.811 -0.2963 -1.5342  0.0664
12018SOL     OW37494   5.066   2.137   5.035  0.1949  0.2725  0.1707
12018SOL    HW137495   5.105   2.050   5.044  0.2333  0.1898 -0.7154
12018SOL    HW237496   5.047   2.146   4.942 -0.0367  1.1212  0.2858
12019SOL     OW37497   6.099   1.247   5.632  0.6248 -0.0061  0.7634
12019SOL    HW137498   6.091   1.284   5.720  0.5189 -1.5495  1.4388
12019SOL    HW237499   6.092   1.152   5.646 -0.3816 -0.2234 -1.0251
12020SOL     OW37500   1.561   3.826   8.980 -0.5093 -0.7152 -0.1897
12020SOL    HW137501   1.513   3.898   8.939 -3.8107 -1.6008  1.7482
12020SOL    HW237502   1.543   3.750   8.925  0.3926 -0.6975 -0.5311
12021SOL     OW37503   1.645   7.107  12.229  0.3914  0.0248  0.5593
12021SOL    HW137504   1.556   7.075  12.218  0.2532  0.1278  1.3139
12021SOL    HW237505   1.670   7.079  12.317  1.3453 -0.5735  0.1078
12022SOL     OW37506   5.245   4.603   6.712 -0.0748 -0.0454 -0.0688
12022SOL    HW137507   5.288   4.686   6.730  0.7626 -0.6940  1.0488
12022SOL    HW237508   5.305   4.556   6.654 -0.5035  0.0739 -0.6255
12023SOL     OW37509   4.035   2.845   0.204 -0.1129 -0.2027 -0.0243
12023SOL    HW137510   4.126   2.874   0.199  0.3870 -1.6398  0.2867
12023SOL    HW237511   4.031   2.791   0.283 -1.8462  1.8207  1.3571
12024SOL     OW37512   3.641   5.207  12.039  0.4199  0.2629  0.2357
12024SOL    HW137513   3.654   5.119  12.073  0.7055 -0.3201 -1.3078
12024SOL    HW237514   3.662   5.264  12.112  2.0023 -0.9152  0.7536
12025SOL     OW37515   5.093   7.451  10.414  0.2213  0.1278 -0.1194
12025SOL    HW137516   5.045   7.440  10.496 -2.7327  4.0170 -1.0092
12025SOL    HW237517   5.162   7.514  10.436  0.0387  0.4325 -0.4149
12026SOL     OW37518   2.584   3.672  10.946  0.2554  0.0702 -0.5394
12026SOL    HW137519   2.588   3.727  10.868  0.1295 -0.1628 -0.7108
12026SOL    HW237520   2.552   3.731  11.015  0.5918  0.3360 -0.6061
12027SOL     OW37521   4.162   4.044  10.828  0.2769 -0.6624  0.2111
12027SOL    HW137522   4.091   4.073  10.771  0.2979 -1.6392 -0.3183
12027SOL    HW237523   4.206   4.125  10.853  1.4386 -0.3062 -2.6600
12028SOL     OW37524   0.251   0.078   6.025  0.2601  0.2736  0.3561
12028SOL    HW137525   0.257   0.173   6.029 -1.8275  0.4198  2.1274
12028SOL    HW237526   0.310   0.047   6.094 -0.4292  0.4180  1.0293
12029SOL     OW37527   3.366   0.643  11.081 -0.8716  0.8077  0.5474
12029SOL    HW137528   3.401   0.722  11.038  2.1922  0.4298  2.0522
12029SOL    HW237529   3.333   0.675  11.165  0.7858  0.5358  1.3548
12030SOL     OW37530   7.869   7.621   5.254 -0.5268 -0.0793  0.0684
12030SOL    HW137531   7.794   7.650   5.307  1.2495  1.0234  2.1456
12030SOL    HW237532   7.912   7.555   5.308  1.0272  0.6400 -0.2338
12031SOL     OW37533   4.421   5.863   6.092  0.2990  0.2878 -0.3583
12031SOL    HW137534   4.327   5.846   6.081  0.0905  0.5554  0.8409
12031SOL    HW237535   4.431   5.879   6.186  1.9725 -2.4720  0.0559
12032SOL     OW37536   7.757   5.324   0.673  0.0490  0.5503 -0.7101
12032SOL    HW137537   7.808   5.291   0.748 -0.2067 -0.4135 -0.9416
12032SOL    HW237538   7.795   5.280   0.597  1.7770  3.1635 -1.5102
12033SOL     OW37539   2.342   7.326   3.631  0.0028  0.2047  0.6484
12033SOL    HW137540   2.358   7.367   3.716 -0.2687  1.2685  0.2042
12033SOL    HW237541   2.341   7.232   3.649  0.8101  0.3774  1.6698
12034SOL     OW37542   0.102   1.753   7.836 -0.5247 -0.1800 -0.4028
12034SOL    HW137543   0.089   1.694   7.911 -0.0805 -0.3166 -0.4302
12034SOL    HW237544   0.045   1.718   7.768 -1.0146  0.0084 -0.0916
12035SOL     OW37545   1.142   0.786  10.408  0.5525 -0.4385  0.2534
12035SOL    HW137546   1.207   0.718  10.390  0.2584 -0.4183 -0.9591
12035SOL    HW237547   1.146   0.843  10.332 -1.1476 -0.6571 -0.0320
12036SOL     OW37548   1.583   7.118   0.726 -0.8452  0.9032 -0.2425
12036SOL    HW137549   1.611   7.028   0.744 -0.9764  1.1788  1.5277
12036SOL    HW237550   1.663   7.163   0.699 -0.2335  0.8572  1.3921
12037SOL     OW37551   4.300   2.122  10.307 -0.4949 -0.1448  0.7732
12037SOL    HW137552   4.328   2.035  10.335  0.2168  0.0092  0.5790
12037SOL    HW237553   4.366   2.148  10.243 -0.8519  0.4302  0.6359
12038SOL     OW37554   1.472   0.606   0.651  0.2060 -0.7211  0.3138
12038SOL    HW137555   1.379   0.628   0.650  0.1508 -0.9051  0.9593
12038SOL    HW237556   1.515   0.681   0.609 -0.2109 -0.5353  0.2176
12039SOL     OW37557   2.522   3.229   9.611  0.3650  0.0434  0.4217
12039SOL    HW137558   2.561   3.150   9.574 -1.3264 -0.5801 -0.1253
12039SOL    HW237559   2.436   3.200   9.644 -0.4923  1.7215 -0.2102
12040SOL     OW37560   5.118   5.380  11.052 -0.0947 -0.1336  0.4828
12040SOL    HW137561   5.133   5.381  10.957  0.4561  1.3555  0.5623
12040SOL    HW237562   5.024   5.398  11.061 -0.5827 -2.2717  0.1941
12041SOL     OW37563   2.655   0.750   5.373 -0.1659  0.0510 -0.1706
12041SOL    HW137564   2.582   0.696   5.342 -0.4248 -0.1254  0.7289
12041SOL    HW237565   2.726   0.688   5.390 -0.4932 -0.0332  0.9518
12042SOL     OW37566   6.246   4.454   6.701 -0.2566 -0.3119 -0.2318
12042SOL    HW137567   6.161   4.430   6.739  0.3402  0.9871  2.1005
12042SOL    HW237568   6.305   4.384   6.728  0.4485  1.2275  2.5140
12043SOL     OW37569   0.605   1.970   9.963 -0.0143  0.7316 -0.4842
12043SOL    HW137570   0.574   1.888   9.924  0.8185  0.3028 -0.2809
12043SOL    HW237571   0.589   2.037   9.897 -2.4774  0.7688  0.0594
12044SOL     OW37572   6.873   5.073   2.494 -0.1006  0.2290  0.0898
12044SOL    HW137573   6.936   5.145   2.496  2.6553 -2.0198  0.9925
12044SOL    HW237574   6.837   5.069   2.582  0.6626 -0.1974  0.3930
12045SOL     OW37575   0.553   5.115   8.296 -0.4461  0.6284 -0.3055
12045SOL    HW137576   0.581   5.069   8.217 -1.0953 -2.2214  1.0084
12045SOL    HW237577   0.457   5.111   8.294 -0.4657 -0.1901  0.9667
12046SOL     OW37578   7.912   2.569  11.271  0.2428 -0.0859  0.0101
12046SOL    HW137579   7.921   2.632  11.342 -0.6722  1.3752 -1.1027
12046SOL    HW237580   7.967   2.496  11.297 -0.2585  0.2696  2.3363
12047SOL     OW37581   0.648   1.502   1.366 -0.0511 -0.2443  0.0663
12047SOL    HW137582   0.612   1.589   1.349 -0.6787 -0.5853 -0.4238
12047SOL    HW237583   0.585   1.461   1.425  1.4520  0.4546  2.2539
12048SOL     OW37584   2.206   7.219   9.126 -0.0323 -0.7929 -0.1365
12048SOL    HW137585   2.196   7.181   9.213 -1.1466 -1.1531 -0.4156
12048SOL    HW237586   2.260   7.297   9.140  1.2128 -1.7408  0.6282
12049SOL     OW37587   0.423   1.395   4.958  0.0983  0.6000 -0.4885
12049SOL    HW137588   0.495   1.387   4.896  1.6537 -1.0006  1.3989
12049SOL    HW237589   0.428   1.316   5.012 -0.7181  2.2036  2.1325
12050SOL     OW37590   3.861   1.945  11.321  0.9954 -1.0125 -0.5849
12050SOL    HW137591   3.880   1.909  11.407  0.3960  0.4263  0.1927
12050SOL    HW237592   3.895   2.034  11.324  0.6882 -0.8306 -1.7341
12051SOL     OW37593   0.849   2.901   0.903 -0.4373  0.2385  0.3446
12051SOL    HW137594   0.840   2.919   0.997  0.2986  0.5422  0.3725
12051SOL    HW237595   0.930   2.946   0.879 -0.9841  0.7485 -0.5859
12052SOL     OW37596   5.093   6.173  10.846 -0.3481  0.1597  0.6589
12052SOL    HW137597   5.094   6.243  10.780  1.5017 -0.6086 -0.2038
12052SOL    HW237598   5.097   6.092  10.795 -0.9632 -0.5424  1.6856
12053SOL     OW37599   0.391   3.714   0.079  0.0003 -0.2661  0.4533
12053SOL    HW137600   0.420   3.793   0.033  0.3493 -0.6985 -0.0801
12053SOL    HW237601   0.304   3.736   0.112 -0.8306 -0.3735 -1.5212
12054SOL     OW37602   1.569   3.248   3.855  0.5397  0.4966 -0.0479
12054SOL    HW137603   1.519   3.203   3.787 -1.3267  1.9503  0.2929
12054SOL    HW237604   1.641   3.290   3.808 -0.7763  1.5601 -1.1872
12055SOL     OW37605   4.724   5.703   8.611  0.0082 -0.0224  0.2119
12055SOL    HW137606   4.709   5.705   8.706 -1.8538 -2.2112  0.0528
12055SOL    HW237607   4.813   5.739   8.600 -0.5841  2.4767  2.4996
12056SOL     OW37608   3.050   4.806   4.658  0.4721 -0.5167  0.4171
12056SOL    HW137609   3.000   4.724   4.646 -0.3746  0.0418  0.0142
12056SOL    HW237610   2.983   4.872   4.677  1.3002 -0.2442  2.5701
12057SOL     OW37611   4.016   6.105   2.471  0.1342  0.3454  0.9811
12057SOL    HW137612   3.930   6.067   2.490 -0.5862  2.1549  1.6068
12057SOL    HW237613   4.051   6.131   2.556  0.5205  1.1659  0.5910
12058SOL     OW37614   0.267   7.546  10.600  0.5780 -0.8324 -0.5865
12058SOL    HW137615   0.329   7.616  10.576  1.5098 -1.7530 -0.9322
12058SOL    HW237616   0.190   7.564  10.546  1.1248 -0.5517 -1.2962
12059SOL     OW37617   2.985   2.100   8.171 -0.0543 -0.2325  0.4136
12059SOL    HW137618   3.043   2.118   8.245 -0.0916  0.6027  0.2447
12059SOL    HW237619   2.977   2.183   8.125 -0.7680 -0.5220 -0.0135
12060SOL     OW37620   4.544   0.281   9.141  0.2409  0.3127 -0.3310
12060SOL    HW137621   4.590   0.201   9.116 -0.8567 -0.4258 -0.0788
12060SOL    HW237622   4.612   0.339   9.173  1.1192 -0.3524 -0.9454
12061SOL     OW37623   6.962   1.704  12.196 -0.1498  0.0761  0.3594
12061SOL    HW137624   6.966   1.799  12.211  0.0434 -0.0601  1.1986
12061SOL    HW237625   7.023   1.667  12.259 -1.3118 -0.7216  1.0462
12062SOL     OW37626   7.170   2.451   8.096 -0.0644 -0.5448  0.0201
12062SOL    HW137627   7.120   2.373   8.123 -1.8907  1.3841  2.7566
12062SOL    HW237628   7.220   2.475   8.174  0.3457  1.0818 -0.7075
12063SOL     OW37629   0.201   6.425   8.755 -0.0290 -0.6123 -0.1290
12063SOL    HW137630   0.157   6.502   8.792  0.5046 -0.9048  1.1664
12063SOL    HW237631   0.287   6.458   8.729 -1.2797  0.2452 -3.7628
12064SOL     OW37632   7.737   2.732   9.498  0.0830  0.2215 -0.1465
12064SOL    HW137633   7.701   2.662   9.444  0.7296 -1.1179  1.1000
12064SOL    HW237634   7.661   2.773   9.540 -0.2070 -0.6135  0.1477
12065SOL     OW37635   3.918   1.583   6.051  0.2555 -0.0953 -0.0775
12065SOL    HW137636   3.915   1.545   6.139  0.2160  0.6144  0.2278
12065SOL    HW237637   3.850   1.536   6.002 -1.2442  0.9881  0.8670
12066SOL     OW37638   6.902   4.119   7.932  0.7320 -0.1367  1.2162
12066SOL    HW137639   6.926   4.201   7.975  2.3778 -0.6122  1.2760
12066SOL    HW237640   6.844   4.146   7.861  0.6230  0.9989  1.7157
12067SOL     OW37641   2.101   4.652   8.366  0.2427  0.5321 -0.4238
12067SOL    HW137642   2.100   4.746   8.351 -0.0130  0.7009  0.5803
12067SOL    HW237643   2.158   4.617   8.298  1.9794  1.6485  0.3876
12068SOL     OW37644   0.228   7.085  10.152  0.1607 -0.4925 -0.4594
12068SOL    HW137645   0.242   6.991  10.139 -0.1015 -0.3794 -1.6707
12068SOL    HW237646   0.153   7.091  10.211  0.3970 -1.0391 -0.1002
12069SOL     OW37647   6.291   2.747   3.482 -0.8170  0.7569  0.2007
12069SOL    HW137648   6.223   2.771   3.545 -1.1721 -1.6580  0.8429
12069SOL    HW237649   6.373   2.771   3.526 -1.0675 -0.6911  1.5792
12070SOL     OW37650   6.070   7.341   6.892 -0.4585 -0.0154  0.2989
12070SOL    HW137651   6.122   7.302   6.962 -1.3992  1.4441  1.8934
12070SOL    HW237652   6.006   7.274   6.869  0.5045 -0.8877  0.0817
12071SOL     OW37653   6.969   2.605   6.989 -0.0038 -0.6631 -0.1573
12071SOL    HW137654   6.983   2.527   7.044 -0.1507 -0.9718 -0.5510
12071SOL    HW237655   7.041   2.663   7.013 -1.0951  0.0213  1.7257
12072SOL     OW37656   5.902   0.243   2.787  0.4011  0.2428 -0.1754
12072SOL    HW137657   5.822   0.276   2.826 -0.4948 -1.6096 -0.3436
12072SOL    HW237658   5.929   0.312   2.726 -1.9927  0.2376 -1.3607
12073SOL     OW37659   3.841   0.795  11.122  0.0378  0.4984  0.4409
12073SOL    HW137660   3.872   0.828  11.207 -1.6388 -0.0265  1.3081
12073SOL    HW237661   3.848   0.700  11.129  0.9763  0.4858 -0.4762
12074SOL     OW37662   4.067   2.719  10.575 -0.4366  0.3192  0.4607
12074SOL    HW137663   4.002   2.734  10.644  0.2856  0.0610  1.2057
12074SOL    HW237664   4.122   2.797  10.576  0.7749 -0.5142  1.5245
12075SOL     OW37665   0.011   6.791   2.576  0.0253 -0.0297 -0.1764
12075SOL    HW137666   0.038   6.704   2.547 -0.7432 -0.7165  1.1381
12075SOL    HW237667   0.029   6.847   2.500  0.5021 -1.3163 -1.0516
12076SOL     OW37668   2.696   6.996   1.713 -0.0535 -0.3463 -0.1923
12076SOL    HW137669   2.659   7.084   1.720  0.1649 -0.1402 -1.4113
12076SOL    HW237670   2.631   6.947   1.662 -0.1571 -0.8873  0.4457
12077SOL     OW37671   6.940   5.938   8.191  0.1602  0.0144  0.9335
12077SOL    HW137672   6.935   5.982   8.107 -2.8421 -1.7903  0.0153
12077SOL    HW237673   6.938   6.008   8.256 -0.1939  1.3544 -0.4905
12078SOL     OW37674   0.755   3.009  12.075 -0.4652  0.2899  0.1277
12078SOL    HW137675   0.791   3.097  12.089 -1.9266  1.2315 -1.6682
12078SOL    HW237676   0.796   2.978  11.995 -0.7209 -0.2628  0.2048
12079SOL     OW37677   5.379   7.746  12.170 -0.1534 -0.0709 -0.0940
12079SOL    HW137678   5.389   7.826  12.118 -0.9137 -0.4416 -0.8255
12079SOL    HW237679   5.309   7.766  12.232  0.2442  0.1146  0.3034
12080SOL     OW37680   1.883   4.557  10.664  0.2188  0.7230 -0.0795
12080SOL    HW137681   1.833   4.595  10.736 -1.8815 -1.0355 -0.4777
12080SOL    HW237682   1.906   4.631  10.608 -1.9960  1.6622  0.1539
12081SOL     OW37683   4.375   3.984   6.939 -0.6179 -0.4901 -0.6303
12081SOL    HW137684   4.299   3.946   6.983 -0.4838  0.5139  0.5494
12081SOL    HW237685   4.449   3.964   6.996 -0.5308  1.3591 -0.0218
12082SOL     OW37686   4.626   5.715   2.661  0.1420 -0.4159 -0.0812
12082SOL    HW137687   4.538   5.722   2.625  0.1345  0.0699  0.0195
12082SOL    HW237688   4.636   5.793   2.717  0.6446 -0.4455 -0.1193
12083SOL     OW37689   5.408   4.526   9.291 -0.1689  0.3012  0.2855
12083SOL    HW137690   5.327   4.562   9.328 -0.3287  0.4685 -0.2265
12083SOL    HW237691   5.421   4.444   9.338 -0.9961 -0.0577 -0.0889
12084SOL     OW37692   5.748   3.103   3.126  0.3400 -0.0939  0.5586
12084SOL    HW137693   5.672   3.086   3.180  0.1226  0.7052  0.5187
12084SOL    HW237694   5.802   3.162   3.178  1.3513 -1.3196  0.9415
12085SOL     OW37695   5.921   0.969   4.342  0.4264 -0.7039 -1.3987
12085SOL    HW137696   5.961   1.019   4.413  0.2015 -2.1423 -0.2068
12085SOL    HW237697   5.993   0.921   4.302  0.5007 -0.1434 -1.9583
12086SOL     OW37698   7.721   0.530   9.441 -0.1484  0.1199 -0.2054
12086SOL    HW137699   7.805   0.561   9.408 -1.4522  1.0936 -2.9038
12086SOL    HW237700   7.682   0.483   9.368 -2.3451  0.5347  0.6325
12087SOL     OW37701   4.096   6.706   6.918  0.8239  0.0550 -0.4304
12087SOL    HW137702   4.066   6.742   6.834 -0.3284 -0.8350 -0.4394
12087SOL    HW237703   4.131   6.620   6.896 -1.0564 -0.9207  0.1667
12088SOL     OW37704   4.370   0.889   3.056  0.3337 -0.0407  0.4253
12088SOL    HW137705   4.363   0.803   3.014  0.9179 -0.4260  1.0965
12088SOL    HW237706   4.339   0.875   3.145 -2.7996  1.2025 -0.3540
12089SOL     OW37707   1.400   7.450   8.679  0.0486 -0.7459 -0.3713
12089SOL    HW137708   1.360   7.508   8.613 -1.0823 -0.8292  0.2234
12089SOL    HW237709   1.492   7.476   8.680  0.0444 -0.5602 -1.7954
12090SOL     OW37710   1.670   4.024   7.184  0.0629  0.1679 -0.3514
12090SOL    HW137711   1.636   3.935   7.189  1.5028 -0.3697  0.5415
12090SOL    HW237712   1.664   4.047   7.092  0.8746 -1.3758 -0.8275
12091SOL     OW37713   4.515   6.159   2.732 -0.7401  0.2184 -0.5563
12091SOL    HW137714   4.579   6.096   2.763 -0.8279  0.2666 -0.2777
12091SOL    HW237715   4.539   6.242   2.774 -1.2145  0.1504 -0.1491
12092SOL     OW37716   2.226   6.907   9.685  0.2341  0.2660  0.4047
12092SOL    HW137717   2.266   6.990   9.713 -0.0695  0.5522  0.0178
12092SOL    HW237718   2.289   6.840   9.711  0.2799  0.5780  1.1298
12093SOL     OW37719   1.826   4.805   4.066 -0.9542 -0.2743  1.3650
12093SOL    HW137720   1.787   4.840   4.146 -0.9467 -0.3229  1.3894
12093SOL    HW237721   1.895   4.747   4.096  0.3111  1.1578  1.3029
12094SOL     OW37722   7.750   2.470   3.268  0.1134  0.1947  0.2197
12094SOL    HW137723   7.682   2.484   3.202 -1.0761 -2.3142  0.7807
12094SOL    HW237724   7.831   2.497   3.225 -0.8387  0.2053 -1.6742
12095SOL     OW37725   3.519   7.303  11.900 -0.1245  0.0326  0.1087
12095SOL    HW137726   3.585   7.370  11.883 -1.6944  2.0568  1.4557
12095SOL    HW237727   3.528   7.285  11.994 -1.2363  0.1231  0.2428
12096SOL     OW37728   3.079   0.426   0.742 -0.0434  0.2515  0.0148
12096SOL    HW137729   3.024   0.434   0.820  0.8873 -0.5670  0.7787
12096SOL    HW237730   3.168   0.446   0.773  0.1901  0.9874 -1.0735
12097SOL     OW37731   3.935   2.048   2.556 -0.3511 -0.4756  0.1796
12097SOL    HW137732   4.023   2.031   2.522 -0.7018  1.4968 -1.9967
12097SOL    HW237733   3.948   2.104   2.632  0.3069  1.9883 -1.6269
12098SOL     OW37734   1.258   4.193   0.318 -0.1106 -0.2013 -0.4733
12098SOL    HW137735   1.239   4.281   0.352  0.4077 -0.8885  1.7537
12098SOL    HW237736   1.172   4.157   0.295 -0.2102  1.4658 -3.1856
12099SOL     OW37737   5.796   6.149   7.487  0.4911  0.2475  0.1522
12099SOL    HW137738   5.757   6.179   7.569 -1.7774  1.0733 -1.1192
12099SOL    HW237739   5.721   6.123   7.433  2.0037 -2.0309 -1.0283
12100SOL     OW37740   2.152   3.812  10.062  0.1529  0.0065  0.3630
12100SOL    HW137741   2.177   3.901  10.037  1.2608 -0.2010  0.6614
12100SOL    HW237742   2.185   3.757   9.991 -0.2708 -0.1993  0.3222
12101SOL     OW37743   0.092   0.730   4.253  0.5087 -0.3829  0.2860
12101SOL    HW137744   0.109   0.691   4.339  2.4997  0.8848  0.5399
12101SOL    HW237745   0.105   0.658   4.191  1.3142 -0.7997  0.9180
12102SOL     OW37746   4.205   3.855   4.898  0.2649  0.4364  0.2696
12102SOL    HW137747   4.152   3.934   4.908  0.7189  0.6776  0.7726
12102SOL    HW237748   4.148   3.784   4.927  0.5406  0.7980  1.7601
12103SOL     OW37749   0.331   3.323   4.571  0.5771 -0.0552  0.5079
12103SOL    HW137750   0.426   3.334   4.575  0.4858  0.5653  1.0810
12103SOL    HW237751   0.318   3.248   4.513  1.3830  0.3689 -0.2388
12104SOL     OW37752   2.865   3.489   4.618 -0.0829  0.5288  0.3313
12104SOL    HW137753   2.772   3.498   4.594  0.1681  1.0494 -0.5007
12104SOL    HW237754   2.864   3.471   4.712 -1.0782 -0.6297  0.1176
12105SOL     OW37755   3.052   4.710   9.353 -0.7336  0.3120 -0.5334
12105SOL    HW137756   3.092   4.756   9.280 -1.1241 -0.2289 -1.0940
12105SOL    HW237757   3.052   4.618   9.326  1.9464 -0.3764  1.3836
12106SOL     OW37758   2.017   2.581   9.628  0.4993 -0.2415 -0.1844
12106SOL    HW137759   1.928   2.547   9.633  0.6124 -1.0589 -2.2934
12106SOL    HW237760   2.031   2.597   9.534  3.5684 -3.1392 -0.4178
12107SOL     OW37761   5.462   6.499   7.667  0.0989 -0.6411 -0.0936
12107SOL    HW137762   5.372   6.471   7.646  0.5120 -0.4463 -2.3831
12107SOL    HW237763   5.472   6.478   7.760 -2.9905  1.2270  0.7934
12108SOL     OW37764   3.799   3.243  11.308  0.7932 -0.3485 -0.9449
12108SOL    HW137765   3.864   3.284  11.251 -0.3037  2.4416 -0.3468
12108SOL    HW237766   3.769   3.313  11.366 -0.3737 -2.3202  1.0327
12109SOL     OW37767   4.866   3.903   8.399  0.3641  0.0652 -0.8657
12109SOL    HW137768   4.923   3.944   8.464 -0.1064 -0.0612 -0.3652
12109SOL    HW237769   4.921   3.836   8.358 -0.1571 -2.0016  1.5450
12110SOL     OW37770   6.434   7.654   7.874 -0.1604  0.1774  0.5808
12110SOL    HW137771   6.345   7.670   7.841 -0.2096  0.5850  0.9032
12110SOL    HW237772   6.436   7.698   7.959  0.6507  0.9992  0.1486
12111SOL     OW37773   5.818   5.148   8.940 -0.1669 -0.0861 -0.0252
12111SOL    HW137774   5.910   5.165   8.919 -0.2595  0.8177  0.2632
12111SOL    HW237775   5.814   5.053   8.955  0.8757 -0.0421  0.6845
12112SOL     OW37776   7.331   7.538   1.191 -0.2394 -0.2389  0.4969
12112SOL    HW137777   7.350   7.444   1.192 -1.2000 -0.4616 -0.5719
12112SOL    HW237778   7.269   7.550   1.264 -0.4483 -0.5120  0.3658
12113SOL     OW37779   5.405   4.824  12.033 -0.0292  0.2962  0.3880
12113SOL    HW137780   5.429   4.889  12.098 -0.0326  0.3828  0.3031
12113SOL    HW237781   5.478   4.762  12.033  1.7409  2.1850 -2.0455
12114SOL     OW37782   0.905   3.904  12.021 -0.3212 -0.5450  0.5442
12114SOL    HW137783   0.999   3.898  12.005 -0.4026 -0.6814  0.1134
12114SOL    HW237784   0.868   3.828  11.976 -0.6188 -0.5986  0.8728
12115SOL     OW37785   4.902   3.908   7.784 -0.2353  0.0466 -0.5441
12115SOL    HW137786   4.981   3.870   7.822 -0.3931 -0.7819 -1.0253
12115SOL    HW237787   4.833   3.886   7.846  0.0599  1.7188  0.4421
12116SOL     OW37788   4.231   5.136   2.697  0.1289 -0.1516 -0.0227
12116SOL    HW137789   4.303   5.074   2.706  0.6426  0.7124  2.8225
12116SOL    HW237790   4.274   5.222   2.695 -0.6922  0.2546 -1.4469
12117SOL     OW37791   3.522   4.493   1.469  0.4969  0.1898 -0.2081
12117SOL    HW137792   3.468   4.418   1.492 -0.7517  1.0982 -0.0675
12117SOL    HW237793   3.524   4.492   1.373 -1.4281  1.2420 -0.2976
12118SOL     OW37794   1.181   1.639   0.591 -0.2534  0.3033 -0.2812
12118SOL    HW137795   1.116   1.569   0.593 -1.3627  1.3067 -0.1314
12118SOL    HW237796   1.265   1.594   0.602 -0.9909 -0.9191  0.6035
12119SOL     OW37797   0.671   3.562   0.217  0.0110  0.1075  0.9674
12119SOL    HW137798   0.693   3.543   0.308 -1.0521 -0.3864  1.1357
12119SOL    HW237799   0.750   3.538   0.168  0.0843 -1.0548  1.6067
12120SOL     OW37800   6.247   5.989   3.846 -0.1774  0.2231 -0.0667
12120SOL    HW137801   6.236   6.064   3.788 -0.5256  1.0737  1.0462
12120SOL    HW237802   6.321   5.940   3.810 -0.9437  0.2302 -1.7044
12121SOL     OW37803   2.875   1.840   4.012  0.6822 -1.0468 -0.2423
12121SOL    HW137804   2.902   1.756   3.974 -3.9530 -2.3225 -1.4747
12121SOL    HW237805   2.831   1.817   4.093 -0.2536  0.2357 -0.3512
12122SOL     OW37806   3.774   0.544   1.531  0.0972 -0.3852  0.0171
12122SOL    HW137807   3.792   0.535   1.438 -0.8001  0.0164 -0.2026
12122SOL    HW237808   3.857   0.522   1.574  0.5436 -0.4632 -0.8728
12123SOL     OW37809   7.141   4.479   7.379  0.1007  0.1454 -0.3088
12123SOL    HW137810   7.221   4.519   7.413 -0.2302 -0.9676  1.9632
12123SOL    HW237811   7.170   4.427   7.304  1.2268  1.0426 -0.5282
12124SOL     OW37812   7.144   4.564   8.078  0.3909  0.6802 -0.4334
12124SOL    HW137813   7.190   4.641   8.044 -0.1161  1.4461  0.5652
12124SOL    HW237814   7.103   4.595   8.159  0.6460 -0.7919  0.2841
12125SOL     OW37815   3.350   7.789   5.076 -0.2650 -0.4952 -0.0847
12125SOL    HW137816   3.267   7.765   5.117  1.2800 -0.5591  3.3103
12125SOL    HW237817   3.378   7.710   5.031 -0.9370 -1.2442  0.7726
12126SOL     OW37818   5.290   7.111  11.888 -0.1265  0.1445  0.0397
12126SOL    HW137819   5.285   7.015  11.894  3.0788 -0.2830 -1.8798
12126SOL    HW237820   5.240   7.133  11.809  0.3572 -0.1553 -0.3590
12127SOL     OW37821   2.742   7.457   8.496 -0.3054  0.3280  0.2006
12127SOL    HW137822   2.673   7.487   8.554 -0.4243 -0.2678  0.3780
12127SOL    HW237823   2.757   7.366   8.521  0.2400  0.3185 -0.1278
12128SOL     OW37824   7.507   7.467   2.290  0.1297  0.3444  0.2743
12128SOL    HW137825   7.571   7.437   2.226  0.5077  3.1865 -0.7817
12128SOL    HW237826   7.558   7.488   2.368  0.1628  0.4627  0.2199
12129SOL     OW37827   7.787   3.806   9.309 -0.0310 -0.2299  0.0729
12129SOL    HW137828   7.716   3.870   9.298 -0.5657 -0.7309  0.5367
12129SOL    HW237829   7.838   3.813   9.228 -1.1851 -0.5553 -0.7238
12130SOL     OW37830   0.716   5.359  10.831 -0.0202  0.8342 -0.4093
12130SOL    HW137831   0.641   5.390  10.780 -0.5622 -1.4603 -1.1155
12130SOL    HW237832   0.683   5.350  10.920 -0.1109  1.3481 -0.3879
12131SOL     OW37833   5.566   4.032  10.042  0.0064  0.2322 -0.4880
12131SOL    HW137834   5.497   3.976  10.007 -0.0115  0.6677 -1.1655
12131SOL    HW237835   5.641   4.017   9.986 -0.4955  2.1230 -1.7704
12132SOL     OW37836   3.659   5.041   0.072 -0.1054 -0.8119 -0.3407
12132SOL    HW137837   3.565   5.061   0.080  0.4181  1.8442  0.0702
12132SOL    HW237838   3.672   4.964   0.128 -1.7630 -0.2672  0.8633
12133SOL     OW37839   3.297   4.958  11.197  0.0815  0.1181  0.6256
12133SOL    HW137840   3.236   5.022  11.235 -0.8072  1.3434 -2.5747
12133SOL    HW237841   3.381   4.980  11.236 -0.5897  1.8429  1.2199
12134SOL     OW37842   2.345   1.210   0.148  0.3054 -0.3723  0.4084
12134SOL    HW137843   2.373   1.119   0.144 -2.8353 -1.4253 -0.4991
12134SOL    HW237844   2.290   1.222   0.070  1.9325  2.8332 -0.4277
12135SOL     OW37845   1.967   0.148   6.030 -0.4967  0.1190  0.2224
12135SOL    HW137846   1.921   0.215   6.080 -1.8376 -0.2631 -0.4631
12135SOL    HW237847   1.945   0.166   5.939  1.0684  0.1701 -0.1856
12136SOL     OW37848   6.825   1.403   7.809  0.3424  0.3426 -0.1692
12136SOL    HW137849   6.742   1.373   7.770 -0.1742  0.8407  0.5326
12136SOL    HW237850   6.801   1.433   7.896  1.3537  0.0422  0.2209
12137SOL     OW37851   6.303   3.098   5.838 -0.4810 -0.7207  0.5941
12137SOL    HW137852   6.336   3.018   5.879  0.4365 -0.2308  0.8311
12137SOL    HW237853   6.382   3.144   5.808 -1.0735 -0.8050 -1.2574
12138SOL     OW37854   1.822   7.904   5.693  0.5271  0.0850 -0.3079
12138SOL    HW137855   1.800   7.935   5.605  2.3122  1.8363 -0.2258
12138SOL    HW237856   1.852   7.814   5.680 -2.0527 -0.7483 -1.0053
12139SOL     OW37857   5.309   5.747  11.986 -0.1477 -0.6059 -0.3421
12139SOL    HW137858   5.331   5.691  12.061 -0.6149  0.0926  0.3448
12139SOL    HW237859   5.389   5.750  11.934  0.5251 -0.2944  0.6691
12140SOL     OW37860   7.119   0.889   0.400  0.0538  0.4853  0.6986
12140SOL    HW137861   7.100   0.853   0.486 -0.2287 -2.2095 -0.3896
12140SOL    HW237862   7.037   0.929   0.372  0.0495  1.0705  1.5305
12141SOL     OW37863   2.129   5.382   1.831  0.0562  0.0335  0.0678
12141SOL    HW137864   2.150   5.402   1.922 -0.0074 -0.8839  0.2996
12141SOL    HW237865   2.054   5.323   1.836  1.0508 -1.3418 -0.4818
12142SOL     OW37866   0.734   4.209   3.638 -0.0229 -0.5616  0.2965
12142SOL    HW137867   0.701   4.250   3.719 -0.9233  0.6196 -0.6394
12142SOL    HW237868   0.823   4.242   3.630 -1.3030  2.9919 -1.4570
12143SOL     OW37869   2.210   6.818   5.308  0.7086  0.5580  0.2363
12143SOL    HW137870   2.172   6.837   5.222 -3.3204  2.5201  2.1835
12143SOL    HW237871   2.301   6.848   5.301  0.7713  0.0135 -3.4342
12144SOL     OW37872   2.288   7.934   6.412 -0.5096 -0.5455 -0.3113
12144SOL    HW137873   2.308   7.858   6.465 -0.7550  0.6554  1.6077
12144SOL    HW237874   2.216   7.906   6.355 -1.5111 -1.3665  1.3007
12145SOL     OW37875   3.636   7.854   0.494 -0.0657  0.3479 -0.4871
12145SOL    HW137876   3.615   7.770   0.535 -0.1977  0.0353 -1.1862
12145SOL    HW237877   3.680   7.832   0.412 -1.1107  0.9272 -1.2309
12146SOL     OW37878   7.161   7.876  10.371 -0.1244  0.5566  0.5340
12146SOL    HW137879   7.141   7.811  10.303  0.7422 -1.6293  2.2564
12146SOL    HW237880   7.081   7.881  10.423  0.3969 -0.5979  1.4940
12147SOL     OW37881   3.815   3.322   7.740 -0.2256  0.2800 -0.1758
12147SOL    HW137882   3.734   3.280   7.713 -1.1692  1.6096  0.4911
12147SOL    HW237883   3.808   3.412   7.708  0.5552  0.6804  0.7251
12148SOL     OW37884   3.038   2.334  10.904 -0.5679  0.4275 -0.2094
12148SOL    HW137885   3.087   2.326  10.986 -0.3791  0.4926 -0.3157
12148SOL    HW237886   2.973   2.402  10.921 -1.4185 -0.4834  0.3266
12149SOL     OW37887   3.158   1.508   0.550 -0.1631 -0.1166 -0.4215
12149SOL    HW137888   3.149   1.489   0.644  2.3556  1.3321  0.1892
12149SOL    HW237889   3.249   1.487   0.529  0.7572  3.9590 -1.3368
12150SOL     OW37890   0.768   3.819  10.090  0.3818 -0.1225  0.3861
12150SOL    HW137891   0.765   3.780  10.177  0.3912 -0.5302  0.2101
12150SOL    HW237892   0.834   3.768  10.043 -0.4434 -0.6772 -0.2120
12151SOL     OW37893   3.059   3.817   4.972  0.7000 -0.0998  0.2692
12151SOL    HW137894   3.049   3.739   4.917  3.3952 -1.1418  1.0925
12151SOL    HW237895   3.102   3.881   4.915  1.4992 -0.4156  0.4991
12152SOL     OW37896   3.170   2.552   6.919 -0.4479  0.3097  0.3321
12152SOL    HW137897   3.158   2.529   6.827  2.0507  1.9967 -0.5314
12152SOL    HW237898   3.122   2.634   6.930  2.2655  2.1996 -0.6611
12153SOL     OW37899   0.456   4.263   1.230  1.0019  0.3331  0.1175
12153SOL    HW137900   0.550   4.248   1.229  0.6189 -2.7465 -1.3399
12153SOL    HW237901   0.419   4.183   1.267 -1.0998  0.5264 -1.3707
12154SOL     OW37902   5.310   0.647  12.416  0.2151 -0.5947 -0.1487
12154SOL    HW137903   5.275   0.691  12.494 -0.1871 -0.5670 -0.3435
12154SOL    HW237904   5.396   0.686  12.404 -0.1897  0.2467 -0.4015
12155SOL     OW37905   2.794   3.513   0.162  0.2246  0.2868 -0.1279
12155SOL    HW137906   2.717   3.563   0.135  0.5842  0.7286 -0.3509
12155SOL    HW237907   2.863   3.541   0.102  0.5830 -0.0384  0.1265
12156SOL     OW37908   2.147   4.088   3.071  0.0392  0.5380  0.1141
12156SOL    HW137909   2.124   4.047   3.154  0.5261  0.8202  0.3982
12156SOL    HW237910   2.112   4.177   3.078 -2.0324 -0.1398 -0.9667
12157SOL     OW37911   7.127   4.232   3.997  0.1830  0.1562 -0.1139
12157SOL    HW137912   7.144   4.250   3.904 -1.7560  0.6676 -0.4026
12157SOL    HW237913   7.071   4.155   3.998  0.7581 -0.2686  0.6818
12158SOL     OW37914   3.062   7.416   3.085 -0.0669 -0.2613  0.0227
12158SOL    HW137915   3.062   7.509   3.108  2.9100 -0.1462 -0.0093
12158SOL    HW237916   3.019   7.413   3.000 -0.7686  0.9997  0.3052
12159SOL     OW37917   5.489   5.432  12.018  0.4395 -0.6882 -0.4217
12159SOL    HW137918   5.406   5.403  11.982  0.0610 -1.0757  0.7096
12159SOL    HW237919   5.522   5.496  11.955 -0.0863 -1.4704 -1.5176
12160SOL     OW37920   3.763   5.936   5.241  0.4603 -0.7833 -0.2370
12160SOL    HW137921   3.670   5.956   5.227  0.1562  0.6171  2.8904
12160SOL    HW237922   3.770   5.843   5.222 -1.3778 -0.7593 -1.3461
12161SOL     OW37923   7.105   3.339   8.560 -0.2592 -0.3035  0.3197
12161SOL    HW137924   7.038   3.344   8.629 -0.6358 -3.8083  0.4006
12161SOL    HW237925   7.056   3.321   8.480  0.4038  0.2260 -0.2171
12162SOL     OW37926   5.674   5.566   4.221 -0.2027  0.7587 -0.0825
12162SOL    HW137927   5.758   5.587   4.263 -0.2977  0.0442  0.4785
12162SOL    HW237928   5.690   5.580   4.127  0.6707  0.2142 -0.0215
12163SOL     OW37929   0.509   4.582   1.394 -0.1354  0.3472 -0.8223
12163SOL    HW137930   0.582   4.645   1.390 -0.1736  0.3919 -0.8201
12163SOL    HW237931   0.546   4.505   1.436 -0.1888  0.5062 -0.4774
12164SOL     OW37932   4.145   1.826   1.815 -0.3219 -0.0721  0.5561
12164SOL    HW137933   4.080   1.839   1.746 -1.4991 -0.7553  1.5114
12164SOL    HW237934   4.095   1.802   1.892  0.9387  1.1477  1.8194
12165SOL     OW37935   3.710   0.436   3.110  0.7109 -0.0049 -0.9750
12165SOL    HW137936   3.669   0.509   3.064  0.2809 -0.4263 -1.2699
12165SOL    HW237937   3.735   0.471   3.195  2.1915  1.0110 -1.7772
12166SOL     OW37938   5.470   7.948   1.995  0.2447 -0.0531 -0.2079
12166SOL    HW137939   5.435   7.956   2.083  0.7207 -0.3828  0.0113
12166SOL    HW237940   5.499   8.037   1.973  0.2983 -0.0095  0.0392
12167SOL     OW37941   7.863   3.693  10.248  0.0058  0.2144  0.2941
12167SOL    HW137942   7.875   3.599  10.255  1.3079  0.4661  2.3020
12167SOL    HW237943   7.945   3.726  10.212  0.2118  0.7000  1.1658
12168SOL     OW37944   4.094   4.988   2.383 -0.1300 -0.0225 -0.2995
12168SOL    HW137945   4.083   4.946   2.468 -0.3978  0.2486 -0.1979
12168SOL    HW237946   4.139   5.070   2.403 -2.6979  1.4250 -0.0344
12169SOL     OW37947   1.910   3.823   1.411 -0.6042 -0.1364  0.4876
12169SOL    HW137948   1.949   3.782   1.334 -1.5053  0.7748 -0.4917
12169SOL    HW237949   1.982   3.870   1.452 -0.4364  0.7012 -0.7253
12170SOL     OW37950   3.524   6.501   4.056 -0.5675  0.1198  0.1192
12170SOL    HW137951   3.532   6.419   4.106 -0.7495  1.5501  2.6684
12170SOL    HW237952   3.486   6.563   4.118 -1.0687  1.9861 -1.9415
12171SOL     OW37953   3.677   1.240   9.894 -0.2769  0.3397  0.2652
12171SOL    HW137954   3.615   1.167   9.885  1.6004 -1.1245 -2.5820
12171SOL    HW237955   3.758   1.198   9.922  0.6770  1.4043 -0.8233
12172SOL     OW37956   7.319   5.632   3.704  0.2598  0.1274 -0.2987
12172SOL    HW137957   7.341   5.696   3.772 -1.4323  2.2571 -1.6037
12172SOL    HW237958   7.227   5.649   3.684  0.1834 -1.6956 -1.8271
12173SOL     OW37959   1.344   4.266   0.010 -0.8826  0.4979  0.3350
12173SOL    HW137960   1.254   4.278  -0.021 -0.6215  1.1732 -0.1675
12173SOL    HW237961   1.398   4.311  -0.054 -0.3081  1.6629  1.5941
12174SOL     OW37962   4.847   2.263   7.811 -0.1856  0.6010  0.2970
12174SOL    HW137963   4.804   2.258   7.726 -0.3393 -1.5623  0.4523
12174SOL    HW237964   4.925   2.317   7.795  0.8718 -1.3570 -1.7532
12175SOL     OW37965   5.056   5.820   9.029 -0.0234  0.1617  0.4361
12175SOL    HW137966   5.151   5.822   9.040 -0.1585  0.3759  1.6499
12175SOL    HW237967   5.044   5.815   8.934  1.1981 -0.4919  0.2897
12176SOL     OW37968   7.845   2.152   8.284 -0.0631 -0.0245  0.3030
12176SOL    HW137969   7.857   2.060   8.307 -0.5661 -1.4238 -4.1048
12176SOL    HW237970   7.757   2.174   8.316  0.6331 -0.4660  2.7376
12177SOL     OW37971   4.869   7.548  11.075  0.2259  0.3028 -0.3437
12177SOL    HW137972   4.962   7.524  11.079  0.3954  0.3071 -2.8557
12177SOL    HW237973   4.824   7.467  11.051 -0.0617  0.8864 -1.8703
12178SOL     OW37974   4.679   1.524   8.440 -0.7431 -0.0203  0.2513
12178SOL    HW137975   4.702   1.615   8.420  0.9435 -0.5993 -0.6946
12178SOL    HW237976   4.639   1.492   8.360 -2.9035  0.3096  1.1329
12179SOL     OW37977   5.570   4.147   0.855 -0.1896 -0.2193 -0.5688
12179SOL    HW137978   5.621   4.106   0.785  0.6919  0.4452 -0.3305
12179SOL    HW237979   5.575   4.241   0.837  0.4106 -0.0109  0.6285
12180SOL     OW37980   2.355   1.244   1.179 -0.3388  0.3287 -0.4977
12180SOL    HW137981   2.349   1.161   1.132  2.1365  0.3339 -0.9614
12180SOL    HW237982   2.265   1.262   1.206 -1.2020 -1.7107 -1.7053
12181SOL     OW37983   0.813   0.997  10.539  0.0483  0.0929 -0.4949
12181SOL    HW137984   0.841   1.045  10.617 -2.2407  4.3910 -2.0162
12181SOL    HW237985   0.718   0.991  10.547 -0.2745  0.8380 -2.9232
12182SOL     OW37986   1.484   2.682   4.347  0.2793  1.0607  0.5964
12182SOL    HW137987   1.533   2.601   4.361  1.4153  1.5079 -0.5994
12182SOL    HW237988   1.400   2.667   4.390  1.2172  0.0263  2.1581
12183SOL     OW37989   4.593   7.625   4.476 -0.1653 -0.2915 -0.6507
12183SOL    HW137990   4.610   7.606   4.568 -0.7230 -1.8118 -0.8255
12183SOL    HW237991   4.667   7.585   4.430  0.0201  0.3096 -0.8800
12184SOL     OW37992   7.670   5.703   0.075 -0.4162 -0.3244  0.5013
12184SOL    HW137993   7.610   5.739   0.139 -0.6540 -0.4567  0.3550
12184SOL    HW237994   7.645   5.743  -0.008 -0.3670 -0.4516  0.4229
12185SOL     OW37995   7.274   6.957   5.869  1.1655  1.0832 -0.0006
12185SOL    HW137996   7.200   7.013   5.894 -1.1672 -1.4218 -0.8137
12185SOL    HW237997   7.315   6.934   5.952 -0.6446  0.4044  0.7607
12186SOL     OW37998   3.900   6.267  11.989  0.0137 -0.0308 -0.8497
12186SOL    HW137999   3.964   6.239  11.924 -0.4225 -1.2192 -0.7885
12186SOL    HW238000   3.876   6.187  12.035 -0.3354  0.6589  0.1940
12187SOL     OW38001   4.049   3.527   4.199  0.2730 -0.2257 -0.1735
12187SOL    HW138002   4.009   3.445   4.225 -2.6054  0.8387 -0.8594
12187SOL    HW238003   4.046   3.526   4.103 -0.5414  0.9630 -0.1832
12188SOL     OW38004   7.054   6.089   0.749 -0.2610 -0.4585  0.3047
12188SOL    HW138005   7.116   6.021   0.722 -0.0095 -0.0105 -0.2801
12188SOL    HW238006   6.977   6.041   0.779 -0.2719 -1.0048 -0.5587
12189SOL     OW38007   3.701   3.411   0.265 -0.2044 -0.7312  0.3039
12189SOL    HW138008   3.748   3.483   0.224 -0.9908 -0.4337 -0.1028
12189SOL    HW238009   3.690   3.346   0.195  0.4825 -1.2445  0.6618
12190SOL     OW38010   0.112   0.020  10.465 -0.0407 -0.1162 -0.3196
12190SOL    HW138011   0.085  -0.041  10.396 -2.0090 -0.8427  0.9876
12190SOL    HW238012   0.038   0.020  10.527  1.3740  0.9746  1.4722
12191SOL     OW38013   4.697   7.714   6.507 -0.4458  0.4695 -0.6938
12191SOL    HW138014   4.777   7.667   6.483 -1.0616 -0.0512 -1.7365
12191SOL    HW238015   4.689   7.783   6.441 -2.1852 -1.0098 -2.0988
12192SOL     OW38016   1.080   3.338   6.546 -0.5581 -0.1973 -0.0179
12192SOL    HW138017   0.992   3.365   6.519  0.5729  1.5405 -2.2637
12192SOL    HW238018   1.105   3.271   6.482  0.6873  1.1903 -1.0571
12193SOL     OW38019   5.866   1.103  12.133 -0.4603 -0.3567  0.3556
12193SOL    HW138020   5.937   1.123  12.071  0.5176  0.2467  1.6184
12193SOL    HW238021   5.812   1.040  12.087  1.1245 -1.1496 -0.5190
12194SOL     OW38022   6.582   1.402   1.357 -0.3902  0.4643  0.1658
12194SOL    HW138023   6.625   1.330   1.404 -0.3742  0.8146  0.6969
12194SOL    HW238024   6.532   1.359   1.288 -0.5955 -0.0839  0.6443
12195SOL     OW38025   4.621   5.126   1.619  0.3939 -0.1132  0.4626
12195SOL    HW138026   4.635   5.110   1.526  1.2925  0.0630  0.5571
12195SOL    HW238027   4.556   5.061   1.645  1.0205 -0.9705 -0.0356
12196SOL     OW38028   3.597   3.385  10.577 -0.0669 -0.0422 -0.1591
12196SOL    HW138029   3.643   3.313  10.532 -0.4397 -0.5861  0.3250
12196SOL    HW238030   3.523   3.343  10.620 -1.2030  0.8656 -1.1481
12197SOL     OW38031   5.113   3.624   3.884 -0.3384  0.6745 -0.7107
12197SOL    HW138032   5.032   3.673   3.870 -0.4832  0.0981 -2.0849
12197SOL    HW238033   5.093   3.536   3.851 -0.3192 -0.5920  2.2817
12198SOL     OW38034   4.604   7.568   7.249 -0.2023  0.4753 -0.0745
12198SOL    HW138035   4.567   7.564   7.161 -0.3991  0.7625 -0.0043
12198SOL    HW238036   4.619   7.476   7.272 -0.0920  0.4004 -0.4294
12199SOL     OW38037   0.608   2.800   0.362  0.1654 -0.3177 -1.0152
12199SOL    HW138038   0.582   2.728   0.419 -0.2474  0.0970 -0.6758
12199SOL    HW238039   0.587   2.879   0.411  2.0387  0.0497 -0.7314
12200SOL     OW38040   5.987   0.209   9.598 -0.6024 -0.1769 -0.4299
12200SOL    HW138041   6.082   0.220   9.594 -0.5143  1.2268  2.4175
12200SOL    HW238042   5.955   0.240   9.514  1.3602  1.3796 -0.6837
12201SOL     OW38043   7.157   1.137   6.368 -1.0462 -0.0917  0.0896
12201SOL    HW138044   7.241   1.091   6.371 -0.7358  0.4900  0.7629
12201SOL    HW238045   7.093   1.072   6.394 -1.2375 -1.3930 -3.2251
12202SOL     OW38046   3.231   4.136  11.046  0.0856  0.4497  0.0331
12202SOL    HW138047   3.296   4.207  11.042  0.1496  0.3828 -0.1295
12202SOL    HW238048   3.263   4.078  11.115 -0.1383  0.7454  0.3910
12203SOL     OW38049   1.221   1.790   3.562 -0.0263 -1.0505 -0.8398
12203SOL    HW138050   1.313   1.767   3.574 -0.1192 -2.4727 -2.5693
12203SOL    HW238051   1.220   1.886   3.565  1.5901 -0.9985 -1.2990
12204SOL     OW38052   7.675   2.831   4.182  0.6725  0.0309  0.0012
12204SOL    HW138053   7.627   2.881   4.115  0.7367 -1.4720 -1.2158
12204SOL    HW238054   7.767   2.849   4.163  0.6752  0.1380  0.1154
12205SOL     OW38055   1.185   2.683   4.884  0.4083  0.4796 -0.3107
12205SOL    HW138056   1.251   2.632   4.930  1.3902  1.4914 -0.5641
12205SOL    HW238057   1.102   2.651   4.919  1.0568 -0.1796  0.6736
12206SOL     OW38058   3.515   0.318   8.299  0.1571  0.4732  0.1204
12206SOL    HW138059   3.610   0.316   8.299  0.2129 -2.4985 -1.2319
12206SOL    HW238060   3.490   0.291   8.387  0.5682  0.7543  0.3237
12207SOL     OW38061   2.347   5.097   4.045  0.1992  0.0453  0.3145
12207SOL    HW138062   2.294   5.018   4.056 -0.1549  0.2879  0.3696
12207SOL    HW238063   2.286   5.169   4.062  0.7852  0.3105  1.4157
12208SOL     OW38064   7.797   4.726   3.736  0.3275 -0.4239 -0.0391
12208SOL    HW138065   7.816   4.636   3.711  1.9024 -0.5045  1.2590
12208SOL    HW238066   7.704   4.737   3.718  0.2022 -2.1743 -0.6184
12209SOL     OW38067   0.995   3.002  11.206 -0.0691  0.4197  0.0490
12209SOL    HW138068   0.943   3.058  11.263  1.0847 -1.6941  3.5217
12209SOL    HW238069   1.082   3.042  11.205 -0.4622  1.2881 -1.6161
12210SOL     OW38070   3.525   7.796   1.669  0.0158  0.6069 -0.5253
12210SOL    HW138071   3.454   7.794   1.605 -2.2587  0.3694  1.8493
12210SOL    HW238072   3.484   7.828   1.749  2.2539 -0.9313  1.3663
12211SOL     OW38073   3.747   1.489   9.806  0.3236  0.0300 -0.0761
12211SOL    HW138074   3.660   1.516   9.777  1.0395  1.1022 -1.3140
12211SOL    HW238075   3.732   1.405   9.850 -1.0949 -0.7928 -1.9793
12212SOL     OW38076   3.036   3.297   6.818  0.5311 -0.2020 -0.1713
12212SOL    HW138077   3.013   3.389   6.824 -2.2150 -0.5421 -3.0775
12212SOL    HW238078   3.086   3.289   6.737  0.8287 -1.2718  0.0952
12213SOL     OW38079   6.747   4.921   8.554 -0.3030  0.0693  0.8453
12213SOL    HW138080   6.714   4.840   8.514 -0.9190  0.3532  0.7797
12213SOL    HW238081   6.675   4.953   8.607 -0.0287  0.5406  0.9348
12214SOL     OW38082   2.924   4.652   5.787 -0.0299  0.3135  0.0506
12214SOL    HW138083   3.005   4.693   5.754 -1.6010  0.4269 -4.2720
12214SOL    HW238084   2.948   4.561   5.803  1.2721  0.6748  0.2738
12215SOL     OW38085   0.966   5.105   2.730  0.3275  0.4524 -0.1316
12215SOL    HW138086   0.893   5.139   2.781 -0.3257 -0.3397 -0.5092
12215SOL    HW238087   1.034   5.085   2.794  0.2361  1.2540  0.2183
12216SOL     OW38088   7.497   5.601   2.473 -0.2473  0.3169  0.2030
12216SOL    HW138089   7.468   5.612   2.564 -0.1314 -2.6090  0.6785
12216SOL    HW238090   7.417   5.613   2.421 -0.3448  1.8669  0.6545
12217SOL     OW38091   1.395   5.921   0.421  0.0533  0.0206 -0.1204
12217SOL    HW138092   1.479   5.921   0.375 -0.0018 -1.3962 -0.2806
12217SOL    HW238093   1.417   5.947   0.511  1.1394 -2.7111  0.5258
12218SOL     OW38094   2.494   4.092   5.251  0.2022 -0.0848 -0.7170
12218SOL    HW138095   2.539   4.010   5.269  0.7518  0.1205 -1.1296
12218SOL    HW238096   2.558   4.145   5.203  0.5499  1.3441  1.2014
12219SOL     OW38097   2.586   4.791  11.820  0.5762 -0.5523 -0.1305
12219SOL    HW138098   2.677   4.787  11.849 -0.2644 -1.6627  2.8008
12219SOL    HW238099   2.574   4.713  11.766  1.2482 -0.6840 -0.0988
12220SOL     OW38100   2.085   5.188   9.559 -0.5748  0.3817 -0.2446
12220SOL    HW138101   2.157   5.148   9.610 -0.3462 -0.0438 -0.8886
12220SOL    HW238102   2.014   5.197   9.622  0.0701  0.9084  0.4385
12221SOL     OW38103   6.995   1.371   8.445  0.0748 -0.8950 -0.4949
12221SOL    HW138104   6.962   1.306   8.383 -0.2799 -0.3847 -0.8564
12221SOL    HW238105   7.076   1.403   8.405 -0.6046  0.0646 -1.1511
12222SOL     OW38106   2.321   0.209   6.782 -0.0230  0.7084  0.5526
12222SOL    HW138107   2.331   0.140   6.848 -1.2155  0.6104  0.6552
12222SOL    HW238108   2.403   0.257   6.786  1.1195 -1.1063  0.0034
12223SOL     OW38109   0.918   0.884   9.843  0.4811 -0.4682 -0.1970
12223SOL    HW138110   0.843   0.845   9.888  2.0738 -1.3116  1.9376
12223SOL    HW238111   0.923   0.973   9.878  0.8578 -0.6441  0.2122
12224SOL     OW38112   2.154   6.328  12.067 -0.2420  0.1499  0.1450
12224SOL    HW138113   2.128   6.277  12.144  0.9422 -2.1030 -0.8276
12224SOL    HW238114   2.075   6.333  12.014 -0.5032 -0.3236  0.4771
12225SOL     OW38115   4.253   2.853   0.469 -0.6898  0.2693  0.1846
12225SOL    HW138116   4.251   2.940   0.507  1.9737  0.0267  1.0657
12225SOL    HW238117   4.274   2.795   0.542  1.3091 -0.6027 -0.9988
12226SOL     OW38118   1.248   7.307   0.334  0.0022 -0.3348 -0.4216
12226SOL    HW138119   1.278   7.254   0.408 -0.3386 -0.0489 -0.0744
12226SOL    HW238120   1.288   7.266   0.257 -0.5725 -1.3486 -0.2011
12227SOL     OW38121   0.876   1.532  12.194 -0.0668 -0.0169 -0.4728
12227SOL    HW138122   0.861   1.440  12.215 -0.4118  0.1164 -0.1117
12227SOL    HW238123   0.820   1.549  12.118 -0.3772  0.0202 -0.2361
12228SOL     OW38124   2.011   3.005   0.129  0.0144 -0.2657  0.1421
12228SOL    HW138125   2.063   3.086   0.123  1.1127 -0.8946  0.8217
12228SOL    HW238126   2.075   2.937   0.145 -0.9609 -1.2029  0.1518
12229SOL     OW38127   7.391   0.035   3.656 -0.4660  0.0786  0.2357
12229SOL    HW138128   7.379  -0.017   3.735 -1.2187 -2.0581 -1.1835
12229SOL    HW238129   7.330  -0.003   3.593  0.1752  1.6293 -1.4115
12230SOL     OW38130   4.162   3.291   5.431  0.1679  0.2113  0.0867
12230SOL    HW138131   4.140   3.287   5.524 -0.3630 -0.3933 -0.0539
12230SOL    HW238132   4.151   3.383   5.408 -0.5353  0.2243  0.4336
12231SOL     OW38133   0.858   2.865   0.259 -0.1238  0.0707 -0.2172
12231SOL    HW138134   0.879   2.826   0.175 -0.0956 -0.7707  0.1692
12231SOL    HW238135   0.780   2.818   0.289 -1.5489  1.9176 -0.8114
12232SOL     OW38136   5.804   3.342  11.123  0.3922 -0.3728  0.2967
12232SOL    HW138137   5.862   3.304  11.057 -0.8572 -0.5842 -0.7381
12232SOL    HW238138   5.814   3.437  11.113  0.3056 -0.4048 -0.1397
12233SOL     OW38139   5.770   1.134   7.506  0.8779  0.1036 -0.1996
12233SOL    HW138140   5.807   1.211   7.462  1.1707 -0.2125 -0.5072
12233SOL    HW238141   5.792   1.147   7.599  2.6834 -0.5894 -0.4976
12234SOL     OW38142   6.362   7.140  10.193 -0.0323  0.5060  0.0290
12234SOL    HW138143   6.370   7.093  10.276 -0.9687 -1.4430 -0.9124
12234SOL    HW238144   6.451   7.148  10.161  0.4338  1.9629  1.5218
12235SOL     OW38145   1.428   5.258   7.186  0.1215  0.1576  0.1778
12235SOL    HW138146   1.512   5.212   7.194  0.9890  1.4639 -0.8966
12235SOL    HW238147   1.405   5.250   7.094 -0.2011  1.0005  0.1775
12236SOL     OW38148   5.373   2.120  10.763  0.2894 -0.5311  0.1657
12236SOL    HW138149   5.306   2.169  10.811  0.8172 -0.5528  0.9369
12236SOL    HW238150   5.346   2.029  10.772 -0.5824 -0.4145 -1.0994
12237SOL     OW38151   2.581   2.285  11.193 -0.4212  0.0323 -0.4003
12237SOL    HW138152   2.501   2.282  11.140  0.3756  1.8180 -1.8046
12237SOL    HW238153   2.646   2.236  11.143 -0.0478  0.5099 -0.3933
12238SOL     OW38154   3.037   1.806   6.253 -0.1010 -0.3066 -0.2900
12238SOL    HW138155   3.020   1.716   6.225  0.3959 -0.6470  0.4844
12238SOL    HW238156   2.952   1.849   6.246 -0.7861 -1.3387  1.1271
12239SOL     OW38157   6.257   5.517   7.611  0.4746 -0.3796  0.0508
12239SOL    HW138158   6.275   5.610   7.620 -0.3534 -0.2296  0.2873
12239SOL    HW238159   6.161   5.512   7.604  0.2548 -1.3676  2.4716
12240SOL     OW38160   6.583   7.940   6.215  0.1698  0.5773  0.4831
12240SOL    HW138161   6.576   8.027   6.253  1.0145  0.6864  0.4076
12240SOL    HW238162   6.504   7.931   6.162  0.0007  1.2319  0.6106
12241SOL     OW38163   5.437   1.180   6.859 -0.3603  0.0500  0.1350
12241SOL    HW138164   5.501   1.134   6.913 -0.9083 -0.6170  0.2418
12241SOL    HW238165   5.361   1.122   6.857 -0.8606  0.6920 -0.2203
12242SOL     OW38166   1.109   3.609   2.166 -0.0397 -0.5527  0.3330
12242SOL    HW138167   1.061   3.608   2.083 -1.9095  0.1385  1.3659
12242SOL    HW238168   1.123   3.517   2.187  0.8433 -0.7320 -0.9423
12243SOL     OW38169   3.062   1.828   1.975 -0.5394  0.0876  0.0633
12243SOL    HW138170   3.134   1.872   2.019 -1.8256  2.6056 -0.1581
12243SOL    HW238171   3.103   1.781   1.902  0.8384  2.0678 -0.5165
12244SOL     OW38172   3.217   1.594   4.308  0.7082 -0.1791 -0.1865
12244SOL    HW138173   3.125   1.611   4.285  0.3401 -0.3472  1.0582
12244SOL    HW238174   3.240   1.516   4.259 -0.3112 -1.0267  0.6240
12245SOL     OW38175   5.189   5.485  10.184 -0.0107  0.0300  0.3894
12245SOL    HW138176   5.262   5.526  10.137  0.4917  0.7345  1.7446
12245SOL    HW238177   5.178   5.400  10.141  1.2931  0.1048 -0.1356
12246SOL     OW38178   4.804   7.137   9.110 -0.1775  0.3174 -0.4012
12246SOL    HW138179   4.854   7.195   9.053  3.1820  0.6771  2.5829
12246SOL    HW238180   4.733   7.191   9.145 -1.5306  0.4177 -3.0569
12247SOL     OW38181   7.626   6.945   7.316  0.2590 -0.3421  0.1729
12247SOL    HW138182   7.704   6.998   7.332  0.5837 -1.1012  1.2082
12247SOL    HW238183   7.597   6.918   7.403  0.4981 -2.4369 -0.3612
12248SOL     OW38184   4.231   6.056  11.496 -0.1485  0.1108  0.7973
12248SOL    HW138185   4.294   6.016  11.436 -2.3212  0.3791 -1.8666
12248SOL    HW238186   4.284   6.112  11.553  2.3009 -1.9675  0.7495
12249SOL     OW38187   5.071   2.524  10.877 -0.5795  0.3603  0.1386
12249SOL    HW138188   5.036   2.606  10.912 -1.4468  0.0623 -0.0092
12249SOL    HW238189   5.095   2.545  10.786  0.1536  0.7098  0.4088
12250SOL     OW38190   0.727   2.360   3.433  0.1757  0.2109  0.1298
12250SOL    HW138191   0.713   2.282   3.379  0.3033  0.0979  0.2598
12250SOL    HW238192   0.795   2.409   3.386  1.4708 -0.6766  1.0122
12251SOL     OW38193   2.832   2.734  10.227 -0.2070  0.0539 -0.0306
12251SOL    HW138194   2.909   2.789  10.212  0.2431 -0.5421  0.0576
12251SOL    HW238195   2.761   2.796  10.241  0.3913  0.6149  0.5999
12252SOL     OW38196   3.300   5.081  12.048 -0.0434  0.2133  1.1015
12252SOL    HW138197   3.301   5.007  12.110  0.8463 -0.6451  0.1108
12252SOL    HW238198   3.360   5.054  11.978  1.7251  2.6342  1.5579
12253SOL     OW38199   7.078   7.767   0.933  0.0204 -0.2748 -0.8425
12253SOL    HW138200   7.052   7.711   0.859 -0.0623 -1.3936  0.0121
12253SOL    HW238201   7.167   7.795   0.911  0.1639 -0.9563 -1.1665
12254SOL     OW38202   6.324   2.158   1.101 -0.0886 -0.2849 -0.1340
12254SOL    HW138203   6.417   2.140   1.114 -0.5642 -2.8809  0.2602
12254SOL    HW238204   6.309   2.241   1.147  1.5768 -1.0240  1.8955
12255SOL     OW38205   0.688   1.597   4.277  0.5803 -0.5840 -0.0367
12255SOL    HW138206   0.776   1.559   4.277  1.6746  1.6842  1.2996
12255SOL    HW238207   0.649   1.568   4.359  0.9203  0.0775  0.3693
12256SOL     OW38208   5.415   7.151   3.562 -0.6382 -0.2459  0.0052
12256SOL    HW138209   5.504   7.123   3.540  0.2142  2.1014  0.2707
12256SOL    HW238210   5.401   7.117   3.650  0.7295  0.8906  0.6983
12257SOL     OW38211   0.803   4.692  11.749 -0.5753 -0.0329 -0.3692
12257SOL    HW138212   0.819   4.751  11.676  0.6986  1.7786  1.2704
12257SOL    HW238213   0.739   4.738  11.804  1.3693  0.5514  1.5785
12258SOL     OW38214   3.434   7.218   7.668 -0.2016 -0.4605 -0.3217
12258SOL    HW138215   3.395   7.148   7.721 -0.0322  0.5457  1.1980
12258SOL    HW238216   3.423   7.297   7.721 -0.2720  0.6574 -1.9403
12259SOL     OW38217   6.325   4.350   0.570 -0.4835 -0.0723  0.1837
12259SOL    HW138218   6.250   4.291   0.559  0.6094 -1.4654 -0.0534
12259SOL    HW238219   6.304   4.400   0.649 -2.3868  0.7232 -0.7531
12260SOL     OW38220   3.133   1.277  11.436 -0.0013  0.4223  0.0707
12260SOL    HW138221   3.148   1.330  11.358  0.8494 -0.4946 -0.4100
12260SOL    HW238222   3.042   1.247  11.428 -0.6828  2.1881  0.6199
12261SOL     OW38223   5.184   4.272   8.334  0.8289 -0.4688  0.0043
12261SOL    HW138224   5.150   4.196   8.381  0.7901  0.1688  1.0503
12261SOL    HW238225   5.279   4.256   8.328  0.6779 -1.1119 -0.7710
12262SOL     OW38226   2.513   7.304  12.416  0.4040 -0.0050  0.1251
12262SOL    HW138227   2.567   7.378  12.386 -0.2432  0.4210 -0.0227
12262SOL    HW238228   2.572   7.228  12.412  1.7243  0.8153  2.2511
12263SOL     OW38229   2.278   7.121  10.199 -0.1489 -0.0733 -0.0228
12263SOL    HW138230   2.305   7.108  10.108  1.6900 -0.0220  0.4701
12263SOL    HW238231   2.332   7.194  10.229 -1.9524  1.0410  0.6398
12264SOL     OW38232   5.932   6.992   8.653  1.0856  0.1761  0.0048
12264SOL    HW138233   5.838   6.989   8.636  1.1828  1.3102 -0.8488
12264SOL    HW238234   5.958   6.900   8.659  0.1035 -0.1741 -0.7996
12265SOL     OW38235   7.868   2.024   0.008  0.3817 -0.1642 -0.1050
12265SOL    HW138236   7.927   1.953   0.029  1.7434  0.6039 -1.1848
12265SOL    HW238237   7.782   1.994   0.039  1.0979 -1.8113  0.3812
12266SOL     OW38238   2.638   2.742   4.297 -0.0864 -0.2487  0.4552
12266SOL    HW138239   2.721   2.707   4.329 -0.4555 -0.4953  1.1784
12266SOL    HW238240   2.590   2.665   4.266 -0.2543 -0.1822  0.5467
12267SOL     OW38241   0.985   4.544   6.174  0.5190 -0.1920 -0.3184
12267SOL    HW138242   1.031   4.603   6.234  0.3453 -0.6466  0.2682
12267SOL    HW238243   1.015   4.457   6.198 -0.5270 -0.4811 -0.0346
12268SOL     OW38244   7.159   7.010   0.372 -0.2210 -0.4049 -0.3762
12268SOL    HW138245   7.100   6.965   0.433 -0.6011  1.0208  0.3356
12268SOL    HW238246   7.196   7.082   0.422 -0.5390  0.8134 -1.8258
12269SOL     OW38247   1.148   7.843   5.744 -0.1657 -0.0298  0.2486
12269SOL    HW138248   1.097   7.827   5.664 -1.9781  1.4854  1.0089
12269SOL    HW238249   1.100   7.797   5.813 -0.7521  1.6385  1.0229
12270SOL     OW38250   3.131   7.383   1.148  0.0143 -0.7369 -0.4396
12270SOL    HW138251   3.118   7.334   1.067  0.3918  0.5564 -1.2999
12270SOL    HW238252   3.045   7.421   1.167  0.3608  0.5735 -1.3371
12271SOL     OW38253   5.681   5.906   0.238 -0.1924  0.4340  0.2750
12271SOL    HW138254   5.608   5.956   0.274 -0.1534  1.1057 -0.5551
12271SOL    HW238255   5.639   5.835   0.189 -0.2799  0.4675  0.3010
12272SOL     OW38256   3.067   2.275   1.100 -0.2389  0.3530  0.2083
12272SOL    HW138257   3.059   2.248   1.191 -0.4146 -1.7887 -0.4026
12272SOL    HW238258   3.042   2.198   1.049  3.3332  0.2568 -1.7078
12273SOL     OW38259   4.748   2.652   2.244  0.3324  0.5513  0.2330
12273SOL    HW138260   4.831   2.634   2.200  0.7678  0.8602  0.9037
12273SOL    HW238261   4.722   2.738   2.213  0.3316  0.5122  0.1250
12274SOL     OW38262   1.848   3.422   8.665  0.1457 -0.3016  0.1838
12274SOL    HW138263   1.841   3.327   8.658 -0.2016 -0.4767  2.2225
12274SOL    HW238264   1.931   3.437   8.710 -0.8250  0.1868  1.9019
12275SOL     OW38265   5.963   4.900   4.184 -0.2222  0.8142 -0.6624
12275SOL    HW138266   6.057   4.916   4.179 -0.1281  0.6494  0.3073
12275SOL    HW238267   5.942   4.853   4.104  1.2554 -2.6935  0.8020
12276SOL     OW38268   0.573   5.613  12.115 -0.1787  0.2754  0.0629
12276SOL    HW138269   0.494   5.632  12.165 -1.0114  0.1190 -1.1388
12276SOL    HW238270   0.557   5.528  12.075  0.1294  0.7263 -1.0623
12277SOL     OW38271   5.192   7.796  12.354  0.7831  0.1279 -0.1205
12277SOL    HW138272   5.127   7.743  12.399 -0.0056  0.6762 -0.5905
12277SOL    HW238273   5.150   7.881  12.343  2.3377  1.1747  1.4241
12278SOL     OW38274   1.339   4.322   7.993  0.3324 -0.3766 -0.0677
12278SOL    HW138275   1.304   4.279   8.072  0.2971  0.6761  0.5094
12278SOL    HW238276   1.350   4.413   8.019  1.1987 -0.2021 -1.0153
12279SOL     OW38277   6.278   6.069   1.556 -0.3782 -0.4134  0.5280
12279SOL    HW138278   6.316   6.088   1.642  0.1029 -0.3932  0.3146
12279SOL    HW238279   6.278   5.974   1.550  0.5926 -0.4058  0.1219
12280SOL     OW38280   4.669   3.670   8.736  0.4890  0.1290  0.2018
12280SOL    HW138281   4.586   3.627   8.714  0.2982  0.5227  0.1530
12280SOL    HW238282   4.676   3.660   8.831 -0.4135  1.5024  0.4401
12281SOL     OW38283   4.871   2.733  12.273 -0.3961 -0.0061  0.0812
12281SOL    HW138284   4.858   2.653  12.222 -0.1533  1.2535 -2.0773
12281SOL    HW238285   4.786   2.751  12.312 -0.5837 -1.0121  0.1652
12282SOL     OW38286   6.431   1.461   6.225 -0.1423  0.2183  0.5338
12282SOL    HW138287   6.445   1.505   6.141 -1.8478  0.4507  0.3429
12282SOL    HW238288   6.356   1.404   6.211  0.3117 -0.6788  1.5741
12283SOL     OW38289   5.931   6.811   2.802  0.5308 -0.4806  0.3635
12283SOL    HW138290   5.854   6.837   2.751  0.1299 -2.1086  0.0799
12283SOL    HW238291   6.004   6.819   2.740  0.6066  1.0289  0.6201
12284SOL     OW38292   6.844   4.635   7.235  0.1935  0.0700 -0.2652
12284SOL    HW138293   6.789   4.626   7.312 -1.1142 -0.0021 -1.1713
12284SOL    HW238294   6.815   4.566   7.176 -1.1553  2.0713 -2.1315
12285SOL     OW38295   1.722   5.269   3.366  0.9014  0.1546  0.1554
12285SOL    HW138296   1.714   5.342   3.426 -0.1409 -0.6925  1.0732
12285SOL    HW238297   1.723   5.191   3.421  0.0545 -0.6408 -0.8888
12286SOL     OW38298   3.402   4.001   5.302 -0.0408 -0.1882  0.1766
12286SOL    HW138299   3.412   3.908   5.282 -1.1208 -0.0678 -1.0730
12286SOL    HW238300   3.359   4.003   5.388 -0.3134 -0.8508  0.0606
12287SOL     OW38301   3.851   1.068   4.922  0.1447 -0.7589 -0.4117
12287SOL    HW138302   3.840   1.006   4.994 -0.5732 -0.5299 -0.3131
12287SOL    HW238303   3.766   1.112   4.916  0.0281 -1.1409 -1.7487
12288SOL     OW38304   3.329   7.719   6.860 -0.4801  0.4431 -0.2006
12288SOL    HW138305   3.424   7.727   6.857 -0.3670 -0.3205  0.9194
12288SOL    HW238306   3.306   7.668   6.782  0.1769 -0.5907  0.2638
12289SOL     OW38307   6.403   6.899   9.910 -0.3236 -0.1701 -0.2619
12289SOL    HW138308   6.395   6.936   9.822 -0.3310  0.7510  0.1125
12289SOL    HW238309   6.335   6.943   9.961  0.7120  0.5075  0.5854
12290SOL     OW38310   5.720   1.338   6.828  0.4052 -0.1019  0.0800
12290SOL    HW138311   5.666   1.407   6.867  1.2609  1.9524 -2.1717
12290SOL    HW238312   5.657   1.269   6.804 -0.8761  1.1246 -0.1887
12291SOL     OW38313   4.104   0.256   2.379 -0.1303 -0.7448 -0.1625
12291SOL    HW138314   4.021   0.300   2.396 -0.2079 -0.2591 -1.6647
12291SOL    HW238315   4.136   0.295   2.297  0.9254 -1.8507 -0.3086
12292SOL     OW38316   4.804   4.653   5.389 -0.3852  0.4710 -0.1377
12292SOL    HW138317   4.797   4.596   5.313  0.0288 -0.7322  0.6799
12292SOL    HW238318   4.753   4.609   5.457  1.1059  0.2913  0.9408
12293SOL     OW38319   5.608   4.188   3.967  0.0075  0.1720  0.4116
12293SOL    HW138320   5.585   4.232   3.886 -0.1829 -1.8892 -0.7127
12293SOL    HW238321   5.619   4.097   3.943 -0.4624 -0.5948  2.7771
12294SOL     OW38322   0.033   5.684   1.409 -0.0355 -0.6306  0.4540
12294SOL    HW138323  -0.051   5.726   1.395  1.4522  2.4393  0.0294
12294SOL    HW238324   0.031   5.605   1.354 -1.2121  1.4151 -2.6522
12295SOL     OW38325   3.242   1.884   9.060 -0.3723  0.1166  0.2876
12295SOL    HW138326   3.148   1.875   9.080 -0.2502  1.1709  1.4647
12295SOL    HW238327   3.258   1.978   9.062  0.6986 -0.0497 -0.0248
12296SOL     OW38328   7.042   4.819   0.704  0.2206  0.5956 -0.1291
12296SOL    HW138329   6.975   4.888   0.702  0.9191  1.3447  0.9668
12296SOL    HW238330   6.997   4.743   0.741 -0.4567  0.5611 -0.9896
12297SOL     OW38331   1.009   3.632  10.484  0.7744  0.3258  0.7783
12297SOL    HW138332   1.071   3.659  10.415  0.6082 -0.7174  0.1987
12297SOL    HW238333   1.037   3.544  10.507  0.2578  0.3274  1.4119
12298SOL     OW38334   1.904   4.354   5.085 -0.3527 -0.0164 -0.2730
12298SOL    HW138335   1.950   4.299   5.022 -1.6599 -1.1643 -0.2642
12298SOL    HW238336   1.867   4.425   5.032  1.1112  0.7733 -0.3174
12299SOL     OW38337   7.179   3.134   3.657 -0.0241  0.2010 -0.1944
12299SOL    HW138338   7.159   3.225   3.635 -1.2977 -0.2248 -0.9159
12299SOL    HW238339   7.243   3.107   3.592 -0.7246  0.1703 -0.8883
12300SOL     OW38340   2.617   1.699  11.828 -0.0832  0.4249 -0.7774
12300SOL    HW138341   2.549   1.709  11.761 -1.5231 -1.7943  0.2474
12300SOL    HW238342   2.677   1.634  11.792 -1.2892 -1.3754  0.2918
12301SOL     OW38343   7.364   0.905   3.808 -0.1398  0.0390 -0.1703
12301SOL    HW138344   7.455   0.918   3.837  0.0020 -0.7233 -0.2528
12301SOL    HW238345   7.359   0.948   3.723 -0.0122  0.5713  0.0874
12302SOL     OW38346   3.659   1.613   2.934  0.1735 -0.3955  0.0725
12302SOL    HW138347   3.569   1.639   2.916  0.0400 -1.2359 -0.6009
12302SOL    HW238348   3.705   1.629   2.851  0.3462 -1.1353  0.0168
12303SOL     OW38349   1.812   5.722   9.225  0.0585  0.0999 -0.1410
12303SOL    HW138350   1.852   5.642   9.189 -0.8537 -0.3154 -0.2795
12303SOL    HW238351   1.875   5.753   9.289  0.2754 -0.9509  0.1865
12304SOL     OW38352   3.649   2.940  12.077 -0.0127  0.3811 -0.0435
12304SOL    HW138353   3.584   2.871  12.074  1.5906 -1.2095  0.2888
12304SOL    HW238354   3.670   2.958  11.986  0.7470 -0.7864 -0.1230
12305SOL     OW38355   1.636   7.348   5.305 -0.4973 -0.3231  0.0645
12305SOL    HW138356   1.710   7.377   5.358 -0.0019  0.5685 -1.0758
12305SOL    HW238357   1.666   7.268   5.263 -1.1763 -1.5061  1.6813
12306SOL     OW38358   3.585   1.925  11.927 -0.0895  0.4642  0.0447
12306SOL    HW138359   3.602   1.916  12.021  0.7709  0.6406 -0.0818
12306SOL    HW238360   3.658   1.978  11.895 -0.5109  0.6169 -0.6817
12307SOL     OW38361   4.838   3.151  11.647  0.1863  0.5383  0.2839
12307SOL    HW138362   4.836   3.247  11.652  1.7928  0.6609 -0.7427
12307SOL    HW238363   4.928   3.130  11.619  0.3055 -1.3438  1.8394
12308SOL     OW38364   7.141   3.203   5.501  0.0415  0.1347 -0.1380
12308SOL    HW138365   7.107   3.285   5.464  0.7452  0.2612 -0.5281
12308SOL    HW238366   7.102   3.198   5.588  0.8653  1.4610  0.3399
12309SOL     OW38367   2.338   5.373   8.590  0.0899  0.1542  0.2266
12309SOL    HW138368   2.265   5.431   8.613  0.4652  0.4106  0.7947
12309SOL    HW238369   2.357   5.326   8.672 -1.1829 -1.8810 -0.5758
12310SOL     OW38370   4.350   5.027   8.629  0.1279 -0.1329  0.0897
12310SOL    HW138371   4.373   5.085   8.702  0.1611 -0.4552  0.3337
12310SOL    HW238372   4.280   5.074   8.584  0.7577  0.5150 -0.2392
12311SOL     OW38373   1.704   0.366   3.224  0.4054 -0.0633  0.2222
12311SOL    HW138374   1.785   0.417   3.230  1.5463 -1.8553  1.1364
12311SOL    HW238375   1.634   0.431   3.225  1.8115  1.6523 -1.9364
12312SOL     OW38376   4.894   5.394   0.472 -0.2894  0.0504 -0.6904
12312SOL    HW138377   4.916   5.486   0.458 -0.3146  0.4923  1.7850
12312SOL    HW238378   4.850   5.368   0.391 -0.3076  2.2011 -1.4519
12313SOL     OW38379   3.564   5.177  11.466  0.0790 -0.4864  0.2617
12313SOL    HW138380   3.598   5.228  11.539 -0.2330 -0.8360  0.6568
12313SOL    HW238381   3.612   5.210  11.390  0.3440 -0.0570  0.6058
12314SOL     OW38382   1.737   0.918  10.490 -0.1811 -0.1739  0.2735
12314SOL    HW138383   1.753   0.895  10.398  1.9121 -0.4496  0.6655
12314SOL    HW238384   1.682   0.996  10.485  0.2780  0.0977 -1.2431
12315SOL     OW38385   6.790   1.282   1.586  0.2169  0.4649  0.2269
12315SOL    HW138386   6.790   1.357   1.527  0.1870 -0.4041 -0.9037
12315SOL    HW238387   6.748   1.315   1.666 -2.6109  0.8745 -1.3035
12316SOL     OW38388   3.473   7.825   2.256  0.0345  0.0702  0.3315
12316SOL    HW138389   3.562   7.789   2.254 -0.4603 -1.2112 -0.0505
12316SOL    HW238390   3.439   7.801   2.342 -0.6535 -1.3928 -0.2913
12317SOL     OW38391   6.961   6.736   5.106  0.4061  0.7780  0.3993
12317SOL    HW138392   6.964   6.730   5.202  2.7124  1.1606  0.4278
12317SOL    HW238393   6.977   6.828   5.088 -0.5625  0.8041 -0.3611
12318SOL     OW38394   6.584   1.022   8.744 -0.1546 -0.1303  0.2848
12318SOL    HW138395   6.655   1.059   8.795 -1.3917  1.2654  1.0719
12318SOL    HW238396   6.584   0.929   8.767  2.0612 -0.4019 -0.5808
12319SOL     OW38397   2.623   6.637  11.777 -0.5104 -0.5219 -0.7599
12319SOL    HW138398   2.652   6.555  11.817 -0.6460 -0.5312 -0.6819
12319SOL    HW238399   2.561   6.610  11.709  1.6227 -0.7164 -2.7869
12320SOL     OW38400   4.385   2.732   7.344  0.0205  0.5132  0.4069
12320SOL    HW138401   4.295   2.701   7.348  0.2193 -0.0189  1.2432
12320SOL    HW238402   4.379   2.826   7.356 -0.4184  0.4629  0.5995
12321SOL     OW38403   6.350   6.176   3.663  0.1863 -0.2066  0.3540
12321SOL    HW138404   6.413   6.175   3.735 -0.9054  3.4987  1.5733
12321SOL    HW238405   6.380   6.245   3.605 -2.5176  1.5903  0.8907
12322SOL     OW38406   4.430   7.108   4.527  0.3016  0.1241 -0.1855
12322SOL    HW138407   4.445   7.043   4.596  1.2237 -0.7638 -1.1657
12322SOL    HW238408   4.439   7.192   4.570  1.9478 -0.4101  0.5821
12323SOL     OW38409   1.087   1.432   5.167  0.4518  0.6071 -0.1466
12323SOL    HW138410   1.123   1.469   5.248  1.3119  1.4516 -0.8834
12323SOL    HW238411   1.113   1.494   5.099  0.0695 -0.2787 -1.1288
12324SOL     OW38412   5.643   2.283  12.344 -0.0119 -0.2823  0.3158
12324SOL    HW138413   5.681   2.216  12.288 -1.1464 -0.6754 -0.0136
12324SOL    HW238414   5.650   2.248  12.433 -0.3886 -0.7471  0.1659
12325SOL     OW38415   0.149   1.285   4.506  0.7259  0.4344 -0.0196
12325SOL    HW138416   0.177   1.239   4.585 -0.1338  0.9379  0.5853
12325SOL    HW238417   0.229   1.292   4.454  1.0245 -1.1467  0.1563
12326SOL     OW38418   3.400   7.306   2.115 -0.1881 -0.4156 -0.4683
12326SOL    HW138419   3.393   7.401   2.127  0.0175 -0.5289  0.5800
12326SOL    HW238420   3.435   7.273   2.197 -3.0862 -1.7430  0.3850
12327SOL     OW38421   3.637   6.134   3.493 -0.4717 -0.1957  0.5001
12327SOL    HW138422   3.696   6.087   3.433  0.7856  0.3862  1.2254
12327SOL    HW238423   3.597   6.201   3.438 -1.9358 -1.7680 -0.4400
12328SOL     OW38424   2.230   3.960   2.769 -0.1549 -0.6093  0.2825
12328SOL    HW138425   2.275   4.044   2.756 -1.4627 -0.0246 -0.7271
12328SOL    HW238426   2.201   3.961   2.860 -2.0174  1.0381 -0.2572
12329SOL     OW38427   3.020   3.224   9.714 -0.4875  0.2072 -0.1626
12329SOL    HW138428   2.991   3.138   9.684  0.4242 -1.1561  2.4959
12329SOL    HW238429   3.106   3.236   9.673 -0.3344 -0.4863 -0.0719
12330SOL     OW38430   6.180   1.466   7.066  0.0160 -0.0344 -0.0185
12330SOL    HW138431   6.115   1.476   7.136  0.8692  1.0938  0.6525
12330SOL    HW238432   6.174   1.374   7.041 -0.9281 -0.2516  0.9307
12331SOL     OW38433   5.688   4.511   5.890 -0.5589  0.3507  0.5792
12331SOL    HW138434   5.596   4.495   5.908 -0.3012 -1.2902  0.6266
12331SOL    HW238435   5.699   4.489   5.797 -0.1015 -0.0713  0.7282
12332SOL     OW38436   6.350   0.905   9.977 -0.1139 -0.0869  0.3991
12332SOL    HW138437   6.301   0.831  10.013  1.7303 -2.2018 -1.1587
12332SOL    HW238438   6.415   0.926  10.044  0.4581 -1.0734  0.1830
12333SOL     OW38439   2.782   2.367   9.181  0.3748  0.3095  0.1108
12333SOL    HW138440   2.809   2.428   9.112  0.7753  0.9726  0.8328
12333SOL    HW238441   2.835   2.392   9.257 -0.9987  0.5002  1.0577
12334SOL     OW38442   4.229   4.589   1.667 -0.3255  0.1049 -0.2501
12334SOL    HW138443   4.322   4.568   1.657 -0.3241  0.2908 -0.6077
12334SOL    HW238444   4.185   4.532   1.605 -0.6486 -1.5569  1.3937
12335SOL     OW38445   7.422   1.450   1.282 -0.9951 -0.1204  0.5507
12335SOL    HW138446   7.343   1.429   1.233  0.8571 -0.2729 -2.5891
12335SOL    HW238447   7.481   1.377   1.266  0.7594  1.2297  0.5480
12336SOL     OW38448   5.204   4.439   6.956 -0.0021 -0.1028 -0.3741
12336SOL    HW138449   5.141   4.495   7.002  1.4771  2.0576 -0.8304
12336SOL    HW238450   5.150   4.387   6.897 -1.4884  0.7037  0.2101
12337SOL     OW38451   1.472   1.579   1.036  0.5466  0.1096  0.1386
12337SOL    HW138452   1.470   1.620   1.123 -0.9643 -0.2548  0.3019
12337SOL    HW238453   1.478   1.485   1.054 -0.4013 -0.0043 -0.1347
12338SOL     OW38454   0.820   0.291   2.320  0.0374  0.4502 -0.2892
12338SOL    HW138455   0.869   0.308   2.401 -0.5693 -0.0339  0.1910
12338SOL    HW238456   0.778   0.374   2.300 -0.4845  0.3460  0.3619
12339SOL     OW38457   3.975   4.254   0.567  0.4757 -0.3020 -0.1963
12339SOL    HW138458   3.881   4.264   0.581  0.8891  1.2159  2.1086
12339SOL    HW238459   3.984   4.234   0.474 -2.2609 -3.3891  0.0503
12340SOL     OW38460   6.948   7.709   9.246  0.5481 -0.1271 -0.1809
12340SOL    HW138461   6.977   7.785   9.298  2.4111 -0.7993 -0.1693
12340SOL    HW238462   6.864   7.737   9.208  1.1996  1.9536 -0.2198
12341SOL     OW38463   5.934   3.200   1.077  0.3479 -0.4775 -0.3808
12341SOL    HW138464   5.983   3.268   1.122 -2.0143 -0.8777  3.1821
12341SOL    HW238465   5.889   3.245   1.006  2.3092  0.7162 -0.9262
12342SOL     OW38466   3.134   0.501  11.570  0.0692 -0.7328 -0.1166
12342SOL    HW138467   3.074   0.510  11.644  0.5877  0.2044  0.2046
12342SOL    HW238468   3.082   0.458  11.503 -0.6156 -0.9830  0.5559
12343SOL     OW38469   0.033   3.701   5.996 -0.4086 -0.4500 -0.0362
12343SOL    HW138470   0.060   3.616   5.962  0.5391 -0.7523  1.3794
12343SOL    HW238471  -0.061   3.693   6.011 -0.4268 -1.0505 -0.4556
12344SOL     OW38472   2.380   6.082  10.188  0.0253  0.4509  0.2474
12344SOL    HW138473   2.390   5.995  10.228 -0.8163  0.3201  0.1900
12344SOL    HW238474   2.337   6.134  10.255  0.6472  0.8723  0.3292
12345SOL     OW38475   0.282   7.318   5.307 -0.7143  0.1498 -0.1776
12345SOL    HW138476   0.200   7.271   5.295 -1.0836  0.7743 -0.1700
12345SOL    HW238477   0.312   7.338   5.219 -0.8420  0.3765 -0.1703
12346SOL     OW38478   0.538   1.017   6.337 -0.0318 -0.2209 -0.3989
12346SOL    HW138479   0.520   1.106   6.309  0.2530 -0.5141 -1.5502
12346SOL    HW238480   0.561   0.970   6.257  1.5050 -0.9141  0.3961
12347SOL     OW38481   3.719   6.365   6.497  0.0745  0.2503  0.1033
12347SOL    HW138482   3.693   6.451   6.530 -0.6018 -0.1089  0.5288
12347SOL    HW238483   3.779   6.384   6.425 -0.2559  1.0793  0.0377
12348SOL     OW38484   6.068   2.500   0.559  0.4772 -0.3216 -0.3467
12348SOL    HW138485   6.025   2.464   0.637 -1.6322 -2.0234 -2.1464
12348SOL    HW238486   6.154   2.458   0.557  1.0488  0.6225  1.6005
12349SOL     OW38487   6.235   2.673  11.978  0.3906  0.4867 -0.0122
12349SOL    HW138488   6.170   2.625  12.030  0.5561 -0.9641 -1.0766
12349SOL    HW238489   6.217   2.646  11.888  0.9562  1.9208 -0.5841
12350SOL     OW38490   7.266   0.277   5.425 -0.1044  0.0147  0.4255
12350SOL    HW138491   7.321   0.309   5.353 -0.1121  1.0599  0.8584
12350SOL    HW238492   7.271   0.182   5.419  0.0339  0.0872 -0.8469
12351SOL     OW38493   7.019   4.324   9.206  0.2036 -0.0363  0.1726
12351SOL    HW138494   7.008   4.252   9.269  0.6872 -0.5593 -0.3222
12351SOL    HW238495   6.944   4.316   9.147 -0.8590  1.1430  1.3211
12352SOL     OW38496   0.243   0.612   7.062  0.5975 -0.6261  0.7074
12352SOL    HW138497   0.199   0.653   6.989  1.4696 -0.9906 -0.0455
12352SOL    HW238498   0.247   0.680   7.129 -0.2974 -0.3222  0.4673
12353SOL     OW38499   2.765   2.156   8.997 -0.3654  0.0737 -0.2411
12353SOL    HW138500   2.747   2.213   9.072 -2.6525  0.5088 -1.0156
12353SOL    HW238501   2.770   2.215   8.922 -4.0531 -0.6148 -1.2703
12354SOL     OW38502   3.692   5.916  12.135  0.2866 -0.6314 -0.1412
12354SOL    HW138503   3.596   5.925  12.130  0.4478  0.9994 -1.2402
12354SOL    HW238504   3.717   5.883  12.049  0.7834 -0.1503 -0.1829
12355SOL     OW38505   4.897   0.421  11.513 -0.4253  0.3182 -0.0807
12355SOL    HW138506   4.933   0.379  11.591  0.8372 -1.3641 -1.5102
12355SOL    HW238507   4.862   0.504  11.546  0.5632 -0.0709  2.1770
12356SOL     OW38508   4.523   2.904   2.198  0.8090  0.2908  0.0115
12356SOL    HW138509   4.513   2.814   2.227  0.7017 -0.0265 -0.9509
12356SOL    HW238510   4.477   2.907   2.113  0.8354  1.2366  0.0150
12357SOL     OW38511   4.663   1.453  10.587 -0.6284 -0.2491 -0.6150
12357SOL    HW138512   4.615   1.438  10.505  0.0932  0.9384 -1.2839
12357SOL    HW238513   4.610   1.411  10.654 -0.8434 -1.9387 -1.7850
12358SOL     OW38514   4.155   3.660   7.165 -0.1707 -0.1095  0.1936
12358SOL    HW138515   4.121   3.701   7.245 -0.7017 -1.1132  0.5062
12358SOL    HW238516   4.124   3.570   7.170  0.6743 -0.4617 -0.6430
12359SOL     OW38517   0.843   3.582  10.777 -0.2724 -0.2510  0.0604
12359SOL    HW138518   0.777   3.602  10.710  0.1336  1.4067  0.0996
12359SOL    HW238519   0.927   3.599  10.734 -0.0331  2.3279  1.3274
12360SOL     OW38520   0.087   4.247   9.503  0.0156 -0.1849 -0.1484
12360SOL    HW138521   0.030   4.171   9.493 -0.0103 -0.1708 -0.1088
12360SOL    HW238522   0.149   4.241   9.431 -0.2773  0.0147 -0.4256
12361SOL     OW38523   0.991   5.660   9.357 -0.1760  0.2297 -0.1930
12361SOL    HW138524   0.974   5.595   9.288 -0.4450  0.0134  0.0712
12361SOL    HW238525   0.929   5.730   9.339  1.1355  1.1361 -1.3794
12362SOL     OW38526   2.577   6.238  12.152  0.3530 -0.0814 -0.2520
12362SOL    HW138527   2.617   6.155  12.177 -0.0350 -0.4684 -0.8916
12362SOL    HW238528   2.482   6.222  12.157  0.2680  0.4524  0.0314
12363SOL     OW38529   5.912   2.066   3.237  0.5188 -0.0778 -0.1986
12363SOL    HW138530   5.990   2.080   3.184  0.3921  0.0075 -0.3625
12363SOL    HW238531   5.883   1.977   3.216 -0.5165  0.5537 -1.5702
12364SOL     OW38532   7.087   7.613   2.367 -0.2276  0.2709  0.3240
12364SOL    HW138533   7.029   7.686   2.390 -0.1105  0.6342 -0.4775
12364SOL    HW238534   7.163   7.655   2.327 -0.2730 -0.2984 -0.3895
12365SOL     OW38535   7.194   1.710   7.047 -0.0832 -0.3182  0.4677
12365SOL    HW138536   7.185   1.621   7.012  1.7096 -0.3991  0.1353
12365SOL    HW238537   7.104   1.738   7.064 -1.1463 -0.4376 -3.7755
12366SOL     OW38538   4.090   2.492  12.307 -0.4130 -0.2105  0.0262
12366SOL    HW138539   4.122   2.575  12.272  1.5179 -0.0682  1.9437
12366SOL    HW238540   4.033   2.517  12.380  1.1649 -0.5222  1.4110
12367SOL     OW38541   3.703   7.377   8.049  0.3487 -0.2514 -0.1793
12367SOL    HW138542   3.736   7.363   8.138  1.3010 -0.3386 -0.5262
12367SOL    HW238543   3.608   7.378   8.058  0.4411  0.3647  0.9286
12368SOL     OW38544   6.474   0.126   2.924  0.5059  0.9840  0.1143
12368SOL    HW138545   6.415   0.117   2.998 -0.5771  1.2604 -0.6788
12368SOL    HW238546   6.517   0.041   2.916 -1.3082  0.0598 -0.5133
12369SOL     OW38547   4.917   1.314   1.437  0.3527  0.2682 -0.1304
12369SOL    HW138548   4.981   1.245   1.420 -0.0511 -0.0996 -0.1731
12369SOL    HW238549   4.844   1.270   1.482 -0.8983  0.2046 -2.0993
12370SOL     OW38550   1.410   7.795   9.780 -0.1142 -0.6290  0.4922
12370SOL    HW138551   1.334   7.851   9.791  1.2791  1.3261  0.7906
12370SOL    HW238552   1.403   7.729   9.849 -1.0546  0.0946  1.0982
12371SOL     OW38553   6.743   6.228   7.144  0.0733  0.1554 -0.1796
12371SOL    HW138554   6.694   6.305   7.170 -0.8562 -0.3405 -0.4117
12371SOL    HW238555   6.789   6.200   7.224 -0.0621  0.5916  0.0526
12372SOL     OW38556   3.943   6.112   5.334  0.0483 -0.0356  0.1391
12372SOL    HW138557   3.900   6.033   5.301 -0.1877  0.3561 -0.5168
12372SOL    HW238558   3.884   6.183   5.309  0.6766  0.4289 -0.0434
12373SOL     OW38559   6.973   6.281   5.906 -0.3554 -0.5543  0.5489
12373SOL    HW138560   7.054   6.312   5.946 -0.3938 -1.7406  1.6303
12373SOL    HW238561   6.956   6.197   5.949 -1.8105 -0.6398 -0.1317
12374SOL     OW38562   7.491   1.400   6.081  0.4934 -0.1430  0.0607
12374SOL    HW138563   7.561   1.373   6.141 -0.4622 -0.7087  0.9607
12374SOL    HW238564   7.476   1.323   6.026  0.3744 -0.1330  0.0783
12375SOL     OW38565   6.761   0.492   2.911 -0.6750  0.2423 -0.0129
12375SOL    HW138566   6.789   0.468   3.000  0.5020  1.3316 -0.0605
12375SOL    HW238567   6.675   0.451   2.901 -0.9006  0.2205  1.6830
12376SOL     OW38568   2.753   1.607   4.436  0.5642  0.1266 -0.1519
12376SOL    HW138569   2.809   1.626   4.362 -1.0088 -0.6657 -1.6264
12376SOL    HW238570   2.682   1.554   4.399 -1.5872  1.7319  1.4063
12377SOL     OW38571   7.728   6.844   4.649  0.1089  0.0708 -0.2017
12377SOL    HW138572   7.750   6.753   4.634  0.4612  0.0465  0.4332
12377SOL    HW238573   7.810   6.885   4.678  0.1689  0.7851 -1.3306
12378SOL     OW38574   2.149   3.231  12.038  0.4738  0.2477 -0.4545
12378SOL    HW138575   2.182   3.160  12.093 -0.1283  0.4268  0.1513
12378SOL    HW238576   2.223   3.291  12.029  0.3406  0.6509  0.8943
12379SOL     OW38577   6.844   4.432  11.373  0.8490 -0.4742  0.4987
12379SOL    HW138578   6.790   4.511  11.382  0.0357 -1.1247  1.5367
12379SOL    HW238579   6.895   4.428  11.454  1.3010 -0.7149  0.2044
12380SOL     OW38580   1.603   6.765   3.583  0.6943 -0.0891 -0.3982
12380SOL    HW138581   1.693   6.768   3.549  0.7296  1.3621 -0.2502
12380SOL    HW238582   1.550   6.804   3.514  0.5616  1.4676  0.5300
12381SOL     OW38583   0.503   1.406   2.464  0.1193 -0.1819  0.4549
12381SOL    HW138584   0.469   1.332   2.414 -0.9615  0.4969  0.1495
12381SOL    HW238585   0.424   1.448   2.500  0.7716  0.3334  1.3064
12382SOL     OW38586   3.428   5.562   9.653 -0.0565 -0.2339 -0.2266
12382SOL    HW138587   3.360   5.518   9.703 -0.1885 -0.9895 -1.0551
12382SOL    HW238588   3.381   5.621   9.594 -0.0754 -1.4599 -1.4814
12383SOL     OW38589   3.103   0.460   7.072 -0.1580  0.2947  0.3357
12383SOL    HW138590   3.106   0.548   7.109  0.1413 -0.6038  2.6165
12383SOL    HW238591   3.167   0.462   7.000 -0.6467  2.0855 -0.0955
12384SOL     OW38592   4.118   6.773   3.968 -0.4989  0.3107  0.2495
12384SOL    HW138593   4.198   6.737   4.005 -1.0859  0.5457  1.8676
12384SOL    HW238594   4.082   6.703   3.914 -0.2703 -0.5795  1.2133
12385SOL     OW38595   1.618   2.268   0.757 -0.2190  0.1777 -0.3165
12385SOL    HW138596   1.634   2.173   0.758 -1.2329 -0.0114  0.5922
12385SOL    HW238597   1.702   2.307   0.733 -0.2316 -1.0256 -2.5678
12386SOL     OW38598   2.185   3.548   5.651 -0.2035 -0.4397  0.3106
12386SOL    HW138599   2.170   3.565   5.744  0.1981  0.5450  0.2043
12386SOL    HW238600   2.132   3.470   5.633 -2.5593  0.9679  0.7106
12387SOL     OW38601   7.932   0.913   0.583 -0.3615  0.1912  0.4282
12387SOL    HW138602   7.842   0.944   0.586 -0.6833 -0.5921 -0.6405
12387SOL    HW238603   7.928   0.824   0.618  0.0091  0.1901  0.4725
12388SOL     OW38604   4.327   2.350   6.514  0.5376  0.5544  0.3016
12388SOL    HW138605   4.332   2.280   6.579 -2.0411 -0.7677 -0.7760
12388SOL    HW238606   4.388   2.323   6.445 -1.8334 -1.8187 -1.0375
12389SOL     OW38607   1.317   4.424  11.769  0.0405  0.3011 -0.1219
12389SOL    HW138608   1.225   4.431  11.795  0.5949  0.2596  2.1133
12389SOL    HW238609   1.315   4.403  11.676 -2.2752 -1.6566  0.2694
12390SOL     OW38610   0.883   3.231   1.695 -0.0924  1.1067  0.1987
12390SOL    HW138611   0.976   3.238   1.718  0.3325 -0.8116 -0.7073
12390SOL    HW238612   0.877   3.270   1.608  0.5482 -1.4386 -1.0886
12391SOL     OW38613   3.952   1.734   2.010 -0.0261 -0.0177 -0.5550
12391SOL    HW138614   3.886   1.709   1.945  0.8063  0.6117 -1.6865
12391SOL    HW238615   3.990   1.651   2.039 -0.1066 -0.2953 -1.2202
12392SOL     OW38616   2.836   7.330  12.094 -0.1658 -0.2438  0.2315
12392SOL    HW138617   2.857   7.392  12.024 -0.0230  0.9396  1.2803
12392SOL    HW238618   2.918   7.320  12.143 -0.1248 -1.4604 -0.0591
12393SOL     OW38619   4.717   3.370   8.018 -0.2051  0.6195  0.1678
12393SOL    HW138620   4.805   3.345   7.987 -0.7221  0.0975 -0.9596
12393SOL    HW238621   4.659   3.339   7.949 -1.1612  2.3216  0.1731
12394SOL     OW38622   4.939   6.700   7.333 -0.0257  0.4278  0.3325
12394SOL    HW138623   5.008   6.731   7.391  0.2581  1.3655 -0.4749
12394SOL    HW238624   4.951   6.605   7.329  1.6835  0.6342 -0.3383
12395SOL     OW38625   2.516   0.498   5.347 -0.0947  0.1820  0.4227
12395SOL    HW138626   2.573   0.455   5.411  0.4076  1.1320  0.6323
12395SOL    HW238627   2.549   0.469   5.262  0.6867  0.6795  0.5457
12396SOL     OW38628   3.140   5.343   8.349  0.2513 -0.0652  0.3511
12396SOL    HW138629   3.106   5.293   8.424 -1.1554 -0.8405 -0.7317
12396SOL    HW238630   3.135   5.434   8.376  0.1267 -0.3571  1.3379
12397SOL     OW38631   3.819   2.634   8.071  0.6285  0.2926 -0.1666
12397SOL    HW138632   3.896   2.682   8.041  0.2416  0.2468 -1.2428
12397SOL    HW238633   3.747   2.668   8.019  0.1946 -0.8101 -0.3010
12398SOL     OW38634   3.298   7.028   0.989 -0.5938  0.0059  0.2870
12398SOL    HW138635   3.283   7.027   1.084  0.5805 -2.2985  0.5336
12398SOL    HW238636   3.385   7.067   0.979 -1.3918  1.7621 -0.0182
12399SOL     OW38637   5.502   1.695   5.158  0.4333 -0.1069 -0.1730
12399SOL    HW138638   5.519   1.617   5.211  2.9315  2.0990  2.6174
12399SOL    HW238639   5.417   1.727   5.189  1.3319  0.5022  1.8360
12400SOL     OW38640   2.595   5.685   3.665  0.2263  0.2151 -0.1918
12400SOL    HW138641   2.547   5.610   3.699 -1.0636  1.4083  0.7519
12400SOL    HW238642   2.657   5.707   3.735  0.4333  0.1704 -0.3617
12401SOL     OW38643   7.361   0.392   4.469 -0.1479 -0.0155 -0.0308
12401SOL    HW138644   7.384   0.352   4.553  0.0233 -1.0741 -0.5524
12401SOL    HW238645   7.431   0.456   4.453  0.6047 -0.8057 -0.0113
12402SOL     OW38646   3.535   2.652   7.238 -0.0730 -0.0712 -0.1585
12402SOL    HW138647   3.490   2.673   7.156 -1.4165  3.1856  1.2120
12402SOL    HW238648   3.487   2.702   7.304  0.9983 -2.4860  2.6395
12403SOL     OW38649   3.570   4.703   3.713 -0.1809  0.0163  0.0755
12403SOL    HW138650   3.547   4.689   3.805 -1.6037  0.3707 -0.1910
12403SOL    HW238651   3.638   4.638   3.695 -0.3437 -0.5002  1.1990
12404SOL     OW38652   5.939   0.705   6.091  0.4675 -0.1171 -0.2539
12404SOL    HW138653   5.963   0.793   6.062  0.3186 -0.0105 -0.0659
12404SOL    HW238654   5.861   0.683   6.040  2.7867 -1.8308 -3.3274
12405SOL     OW38655   1.441   3.059   8.963 -0.4165  0.6897 -0.8216
12405SOL    HW138656   1.482   3.146   8.963 -0.7990  0.8762  0.0434
12405SOL    HW238657   1.359   3.071   9.010 -1.3822  0.2591 -2.3313
12406SOL     OW38658   2.164   3.323   1.760  0.4065  0.2397 -0.4470
12406SOL    HW138659   2.253   3.316   1.795  0.4272  0.2266 -0.5026
12406SOL    HW238660   2.108   3.290   1.830  0.2910  2.0182  0.3555
12407SOL     OW38661   3.029   2.168   4.300  0.7245 -0.0313 -0.1493
12407SOL    HW138662   2.963   2.170   4.230  0.1265 -1.7009  0.3435
12407SOL    HW238663   2.981   2.190   4.379  1.5372  2.6178 -0.2656
12408SOL     OW38664   1.702   1.742  10.827 -0.1782 -0.2471 -0.2953
12408SOL    HW138665   1.617   1.701  10.838 -0.7290  1.0718  0.5367
12408SOL    HW238666   1.760   1.695  10.888 -1.1476  1.1188  1.7860
12409SOL     OW38667   6.261   5.453   7.336  0.4867  0.6360  0.2675
12409SOL    HW138668   6.271   5.488   7.424  1.3465 -0.2423  0.5206
12409SOL    HW238669   6.215   5.370   7.347 -0.6133  1.1574 -0.2420
12410SOL     OW38670   2.179   2.343   0.761 -0.0352 -0.0100  0.1656
12410SOL    HW138671   2.150   2.279   0.827  2.2135 -1.1946  0.0858
12410SOL    HW238672   2.265   2.312   0.733 -0.1551  1.4502 -2.0710
12411SOL     OW38673   3.241   1.967   1.235 -0.1253  0.9116 -0.1211
12411SOL    HW138674   3.176   1.916   1.284  0.9629  0.6929  1.1397
12411SOL    HW238675   3.203   1.977   1.148 -0.2525 -2.4203 -0.5717
12412SOL     OW38676   4.702   4.968   9.753 -0.1543 -0.2238  0.0396
12412SOL    HW138677   4.769   5.004   9.811  0.8679 -0.0284 -1.2251
12412SOL    HW238678   4.628   4.949   9.811  0.8392 -0.0746  1.3977
12413SOL     OW38679   6.667   6.958   7.130 -0.1818  0.1633 -0.6011
12413SOL    HW138680   6.750   6.992   7.096 -0.2527  0.3909 -0.5470
12413SOL    HW238681   6.671   6.863   7.113 -0.7775  0.4244 -2.4529
12414SOL     OW38682   4.993   6.329   4.587  0.4573  0.2711 -0.6905
12414SOL    HW138683   4.978   6.250   4.535 -1.9559 -0.6489  1.1883
12414SOL    HW238684   5.011   6.398   4.523  1.7985 -1.5975 -2.4291
12415SOL     OW38685   6.118   0.728   5.060  0.1613  0.5177  0.1878
12415SOL    HW138686   6.140   0.797   5.122 -0.3941  0.2533  0.6863
12415SOL    HW238687   6.043   0.763   5.011 -0.5678  0.0014  0.9148
12416SOL     OW38688   1.621   1.361   9.345 -0.0789  0.3586 -0.1001
12416SOL    HW138689   1.642   1.416   9.421  1.2809 -0.6704  0.3184
12416SOL    HW238690   1.641   1.272   9.375 -1.2200 -0.2586 -1.1031
12417SOL     OW38691   2.185   3.300  10.640  0.5077 -0.2494 -0.0415
12417SOL    HW138692   2.244   3.282  10.713 -0.2956  0.2687  0.7521
12417SOL    HW238693   2.099   3.270  10.670 -0.2076  1.6617 -0.0152
12418SOL     OW38694   2.946   6.459   9.495 -0.2648 -0.0741 -0.1891
12418SOL    HW138695   2.894   6.532   9.463 -1.9531 -0.4930  1.3934
12418SOL    HW238696   2.888   6.382   9.486  0.5404 -0.7772  0.4280
12419SOL     OW38697   2.448   2.120   4.053  0.4455 -0.2106 -0.6070
12419SOL    HW138698   2.414   2.209   4.045 -0.0041 -0.2682  0.4854
12419SOL    HW238699   2.493   2.120   4.138 -1.1782 -1.5268  0.3014
12420SOL     OW38700   1.354   3.498   5.663 -0.3058 -0.0221  0.2669
12420SOL    HW138701   1.385   3.463   5.579  0.6639  2.0854 -0.3387
12420SOL    HW238702   1.430   3.544   5.699 -0.6919 -0.9366  2.3760
12421SOL     OW38703   6.891   0.459   4.155  0.4446 -0.1738  0.0518
12421SOL    HW138704   6.951   0.396   4.115  1.8792  1.3610 -0.3371
12421SOL    HW238705   6.897   0.441   4.249 -0.0806 -1.3726 -0.1295
12422SOL     OW38706   4.656   7.918   3.895 -0.0054  0.2598 -0.2665
12422SOL    HW138707   4.685   7.885   3.810  1.0482 -1.5777  0.7424
12422SOL    HW238708   4.734   7.913   3.951 -1.4120 -1.7959  1.7008
12423SOL     OW38709   1.384   4.318   6.898  0.4589 -0.0524 -0.4418
12423SOL    HW138710   1.371   4.403   6.856 -1.0431 -0.0576 -0.0304
12423SOL    HW238711   1.377   4.336   6.991 -0.9977 -0.7890 -0.3915
12424SOL     OW38712   0.476   2.390   7.163 -0.4430  0.4341  0.0133
12424SOL    HW138713   0.546   2.451   7.185  0.3471 -0.7053  0.8135
12424SOL    HW238714   0.395   2.437   7.185  0.0111  1.9579 -1.4187
12425SOL     OW38715   1.052   1.347   2.075 -0.0550  0.8797  0.0132
12425SOL    HW138716   1.020   1.349   2.165  0.5850 -0.7754  0.3102
12425SOL    HW238717   1.009   1.272   2.035 -0.8572  1.9866 -1.3135
12426SOL     OW38718   5.952   7.209   2.967  0.1897  0.9573 -0.6762
12426SOL    HW138719   5.946   7.118   2.993  0.6596  1.0384 -0.2783
12426SOL    HW238720   5.919   7.211   2.877  0.1052  0.4143 -0.6557
12427SOL     OW38721   3.896   1.241   8.198 -0.4092 -0.2123 -0.1732
12427SOL    HW138722   3.901   1.146   8.185  0.4120 -0.2782  0.5465
12427SOL    HW238723   3.975   1.263   8.247 -1.8368  0.4768  1.9334
12428SOL     OW38724   2.447   4.912   5.732 -0.2219 -0.2924  0.2798
12428SOL    HW138725   2.394   4.992   5.735  1.5029  0.8761  0.7517
12428SOL    HW238726   2.451   4.890   5.639 -1.2524 -0.2157  0.2081
12429SOL     OW38727   0.447   0.148   6.415  0.4123  0.3557  0.1556
12429SOL    HW138728   0.370   0.156   6.471  0.1247  0.8226 -0.2976
12429SOL    HW238729   0.519   0.186   6.466  0.4392 -0.4483  0.7441
12430SOL     OW38730   7.332   3.863  10.928  0.3607  0.3391  0.8925
12430SOL    HW138731   7.292   3.779  10.948  0.4450  0.8097  3.3874
12430SOL    HW238732   7.406   3.870  10.989  2.8335  0.5801 -1.8713
12431SOL     OW38733   0.782   4.220   7.159 -0.1650  0.6114  0.7452
12431SOL    HW138734   0.859   4.206   7.105 -0.0494  0.9569  0.8239
12431SOL    HW238735   0.724   4.146   7.137  0.5554 -0.1449  1.3506
12432SOL     OW38736   2.053   6.959   4.128 -0.0346  0.4521  0.1956
12432SOL    HW138737   2.078   6.879   4.173  0.3560  0.5774  0.2011
12432SOL    HW238738   2.082   6.946   4.037  0.3783  0.7416  0.2816
12433SOL     OW38739   4.703   6.469   8.469 -0.2679 -0.3412 -0.0798
12433SOL    HW138740   4.784   6.422   8.446 -1.3447 -1.9896 -0.6395
12433SOL    HW238741   4.676   6.511   8.387  0.9838  1.8219  0.5422
12434SOL     OW38742   5.333   2.561   1.152 -0.6622 -0.1564 -0.2662
12434SOL    HW138743   5.394   2.584   1.222 -0.5849 -1.7369  0.2383
12434SOL    HW238744   5.267   2.630   1.153  0.6628  1.1451 -0.2794
12435SOL     OW38745   4.357   4.324   3.337 -0.1030  0.1986  0.1795
12435SOL    HW138746   4.385   4.355   3.252 -1.8629 -0.2198 -0.6057
12435SOL    HW238747   4.413   4.249   3.356 -0.2364 -0.2140 -1.0107
12436SOL     OW38748   6.428   7.738  11.977  0.0755 -0.2212 -0.0608
12436SOL    HW138749   6.509   7.702  11.940 -0.9066 -2.3899 -0.2565
12436SOL    HW238750   6.379   7.767  11.900 -0.3116 -1.1180 -0.1676
12437SOL     OW38751   5.563   7.669  10.997  0.3842  0.0962 -0.0297
12437SOL    HW138752   5.540   7.729  10.926 -1.0986 -0.4656 -0.0497
12437SOL    HW238753   5.648   7.633  10.971  0.1971  0.4370 -1.1669
12438SOL     OW38754   6.265   0.206   1.205 -0.2441  0.5577 -0.0235
12438SOL    HW138755   6.277   0.285   1.256 -0.2047 -0.0344  0.9043
12438SOL    HW238756   6.317   0.140   1.251 -0.2023  0.0122 -0.8328
12439SOL     OW38757   6.670   0.832   8.134 -0.1563  0.1374 -0.2615
12439SOL    HW138758   6.683   0.852   8.041  3.3558 -0.7455 -0.1076
12439SOL    HW238759   6.641   0.741   8.134  2.0787 -0.6297 -0.5196
12440SOL     OW38760   7.793   0.829   9.347  0.1653 -0.2724 -0.5621
12440SOL    HW138761   7.704   0.807   9.376  0.3055 -0.5059 -0.3039
12440SOL    HW238762   7.845   0.751   9.367  0.6227  0.2005  0.1576
12441SOL     OW38763   4.981   3.476   5.266 -0.5115 -0.4050 -0.3598
12441SOL    HW138764   5.000   3.384   5.247 -0.0295 -0.4984  0.5257
12441SOL    HW238765   4.909   3.499   5.207  0.2918 -0.9493 -1.5882
12442SOL     OW38766   6.101   7.477   4.790  0.2398  0.0227  0.0078
12442SOL    HW138767   6.014   7.517   4.790 -0.9811 -2.4450  0.5189
12442SOL    HW238768   6.147   7.518   4.863 -1.4017 -0.3468  1.3158
12443SOL     OW38769   7.044   6.589  12.276  0.1553 -0.5002  0.6232
12443SOL    HW138770   6.972   6.559  12.220 -1.1846  2.2303  0.7294
12443SOL    HW238771   7.105   6.632  12.215 -0.1269  0.3958  0.9670
12444SOL     OW38772   6.845   2.446   3.828 -0.3609 -0.2021  0.0514
12444SOL    HW138773   6.901   2.498   3.770 -0.2925 -0.5358 -0.1819
12444SOL    HW238774   6.857   2.487   3.915 -1.5752  1.2169 -0.4025
12445SOL     OW38775   1.377   2.968  12.165 -0.1865  0.4259  0.1864
12445SOL    HW138776   1.433   3.026  12.217 -0.2175  0.0556  0.6402
12445SOL    HW238777   1.411   2.881  12.183 -0.0322  0.3150 -0.6295
12446SOL     OW38778   6.820   3.146   6.709 -0.9786 -0.0027 -0.2443
12446SOL    HW138779   6.910   3.158   6.676 -0.5962 -1.7477  0.0308
12446SOL    HW238780   6.765   3.190   6.644  0.0426  0.5757 -0.7466
12447SOL     OW38781   5.572   0.652   8.937 -0.2243 -0.6500  0.2802
12447SOL    HW138782   5.492   0.704   8.930 -0.1801 -0.3333  1.8219
12447SOL    HW238783   5.574   0.600   8.857 -0.5043  1.3732 -1.1139
12448SOL     OW38784   7.147   3.341  10.713 -0.1941 -0.4968  0.4509
12448SOL    HW138785   7.173   3.302  10.797  0.1711  1.1391  1.1198
12448SOL    HW238786   7.228   3.346  10.663 -0.6646 -3.0793 -0.7650
12449SOL     OW38787   7.484   6.020  11.928  0.0561  0.2907  0.0338
12449SOL    HW138788   7.461   6.004  11.837 -1.0137  0.4889  0.2613
12449SOL    HW238789   7.451   5.943  11.975  1.2041 -0.1371  0.1791
12450SOL     OW38790   5.099   2.888   8.042  0.2417  0.7683  0.0527
12450SOL    HW138791   5.121   2.879   7.949  0.6669  1.5227  0.0653
12450SOL    HW238792   5.090   2.983   8.055 -0.9837  0.6095  0.5239
12451SOL     OW38793   4.726   2.327   9.975  0.1295 -0.1602  0.2027
12451SOL    HW138794   4.770   2.345   9.892  1.1654  1.1881  1.0035
12451SOL    HW238795   4.769   2.248  10.008  1.7099  0.8671  0.7409
12452SOL     OW38796   5.851   7.668   1.076 -0.1635  0.2107  0.3816
12452SOL    HW138797   5.894   7.655   1.161 -0.4116  1.6914  0.7521
12452SOL    HW238798   5.890   7.748   1.041 -0.9785  0.3083 -0.3167
12453SOL     OW38799   0.221   6.422   4.068  0.6025 -0.6236 -0.0481
12453SOL    HW138800   0.291   6.453   4.125  0.4166 -1.2707  0.5528
12453SOL    HW238801   0.210   6.330   4.092  0.7708 -1.0091 -1.4077
12454SOL     OW38802   0.754   4.829  11.383  0.1054  0.3487  0.4033
12454SOL    HW138803   0.775   4.736  11.368  1.5359  0.5748  0.8200
12454SOL    HW238804   0.713   4.858  11.302 -0.0333 -0.5608  0.1326
12455SOL     OW38805   4.304   3.860   4.299 -0.4549  0.7894  0.0357
12455SOL    HW138806   4.218   3.903   4.294 -1.7681 -1.7369 -0.4674
12455SOL    HW238807   4.287   3.769   4.277  2.4339  0.2370 -0.2905
12456SOL     OW38808   1.906   5.676   7.903 -0.2301 -0.1315  0.0207
12456SOL    HW138809   1.850   5.620   7.850  1.2560  0.1659 -1.9870
12456SOL    HW238810   1.845   5.736   7.947 -1.5768 -0.8069 -0.8549
12457SOL     OW38811   7.918   0.641   0.650 -0.0410  0.4254 -0.7516
12457SOL    HW138812   7.852   0.637   0.581 -0.5560 -1.4686 -0.2116
12457SOL    HW238813   7.869   0.632   0.731  0.7948 -0.2207 -0.2963
12458SOL     OW38814   5.839   4.490   3.722  0.1559 -0.1551 -0.6151
12458SOL    HW138815   5.839   4.552   3.795 -1.4522  0.5292 -1.1547
12458SOL    HW238816   5.765   4.432   3.740 -0.9244  0.6699 -2.2050
12459SOL     OW38817   4.501   0.059   2.366 -0.1518 -0.4750  0.3561
12459SOL    HW138818   4.590   0.044   2.335 -0.6735 -3.2600 -0.0622
12459SOL    HW238819   4.502   0.031   2.458 -0.3990  0.3722  0.6253
12460SOL     OW38820   2.770   0.775   3.874 -0.1611 -0.5901 -0.1402
12460SOL    HW138821   2.816   0.833   3.934  0.1723 -0.8305 -0.1565
12460SOL    HW238822   2.840   0.726   3.830 -0.3901 -0.3150 -0.8325
12461SOL     OW38823   3.193   1.554  12.240  0.0950  0.6568 -0.4255
12461SOL    HW138824   3.116   1.604  12.268  1.0415  2.1534 -0.3761
12461SOL    HW238825   3.184   1.469  12.284 -0.3120  1.6622  1.5193
12462SOL     OW38826   7.508   4.145  10.523 -0.4042  0.4002 -0.0171
12462SOL    HW138827   7.514   4.103  10.609  0.6110  1.8367  0.6470
12462SOL    HW238828   7.574   4.101  10.470  0.1330  0.6488  0.4439
12463SOL     OW38829   1.906   1.118   2.287  0.2197 -0.1481 -0.5727
12463SOL    HW138830   1.919   1.210   2.312 -1.6564 -0.1125  0.4249
12463SOL    HW238831   1.987   1.095   2.242  1.3790  1.5425  0.4890
12464SOL     OW38832   0.455   5.074   0.642 -0.3473  0.2869  0.0039
12464SOL    HW138833   0.535   5.032   0.673 -1.6467 -0.4549  2.6451
12464SOL    HW238834   0.474   5.168   0.644  0.3602  0.1382  0.9676
12465SOL     OW38835   3.480   4.010   8.808 -0.1257  0.5963  0.7056
12465SOL    HW138836   3.506   3.994   8.899  0.3471  1.5840  0.7598
12465SOL    HW238837   3.416   4.081   8.814  1.4466  2.1483  0.1451
12466SOL     OW38838   1.675   6.302  10.451  0.5232  0.0795 -0.4625
12466SOL    HW138839   1.620   6.300  10.372  0.0738 -0.6065 -0.1472
12466SOL    HW238840   1.642   6.229  10.504 -0.9733  2.0974  1.5704
12467SOL     OW38841   1.521   1.003   3.861 -0.1189 -0.0736  0.2567
12467SOL    HW138842   1.453   0.936   3.856  1.9728 -2.3858  0.7930
12467SOL    HW238843   1.595   0.959   3.903  1.5273  2.4865  0.2554
12468SOL     OW38844   0.233   2.869   8.532  0.2201 -0.0264 -0.2623
12468SOL    HW138845   0.152   2.919   8.520 -0.2573 -0.5643  0.5913
12468SOL    HW238846   0.204   2.778   8.542  0.8925 -0.1822  0.3843
12469SOL     OW38847   0.128   3.219   8.998  0.2017 -0.3812 -0.6309
12469SOL    HW138848   0.196   3.182   9.055  0.6123  0.5402 -0.5029
12469SOL    HW238849   0.131   3.166   8.919  2.3194  0.7077 -1.3552
12470SOL     OW38850   2.024   1.458   9.442 -0.8910  0.3999  0.1274
12470SOL    HW138851   2.082   1.472   9.518  2.9610 -0.1903 -2.4112
12470SOL    HW238852   2.049   1.372   9.409 -0.8116  1.4789 -2.9804
12471SOL     OW38853   6.412   1.403   3.544  0.4919 -0.5907 -0.6714
12471SOL    HW138854   6.507   1.405   3.539  0.7953 -0.3434  2.6843
12471SOL    HW238855   6.392   1.321   3.590 -0.8028 -0.0551 -0.2174
12472SOL     OW38856   4.594   6.037   8.461  0.4715 -0.0629  0.5561
12472SOL    HW138857   4.527   6.088   8.416  0.6308  0.3128  0.7371
12472SOL    HW238858   4.580   5.947   8.432 -0.1211  0.0125  0.6105
12473SOL     OW38859   4.207   1.483   3.736  0.6366  0.1579 -0.6102
12473SOL    HW138860   4.212   1.510   3.644 -1.3145  1.6655 -0.3524
12473SOL    HW238861   4.180   1.391   3.732  2.2754 -0.3169 -1.5175
12474SOL     OW38862   3.919   1.497   3.964 -0.2928  0.3556 -0.2398
12474SOL    HW138863   3.861   1.498   3.888 -2.4655  0.0025  1.3131
12474SOL    HW238864   3.933   1.589   3.985 -1.3057  0.4535  0.0667
12475SOL     OW38865   3.960   7.964   1.750  0.0719 -0.6374  0.0331
12475SOL    HW138866   3.945   7.916   1.832  0.1162 -0.6874  0.0126
12475SOL    HW238867   3.887   7.939   1.694 -1.6965  1.7875  1.1119
12476SOL     OW38868   5.708   7.700   3.265 -0.0918 -0.3936 -0.0686
12476SOL    HW138869   5.686   7.775   3.319  1.8918  1.8563 -2.1625
12476SOL    HW238870   5.626   7.676   3.222 -0.6684  0.8219  0.3295
12477SOL     OW38871   5.963   2.032   8.540 -0.5144  0.2930 -0.2834
12477SOL    HW138872   5.879   2.046   8.497 -2.1665 -2.2337  1.8128
12477SOL    HW238873   6.007   2.117   8.535 -2.7741  1.4656 -2.2403
12478SOL     OW38874   2.333   2.704   8.760 -0.8272  0.5599  0.0168
12478SOL    HW138875   2.297   2.724   8.846 -0.1254  1.2447  0.1718
12478SOL    HW238876   2.300   2.774   8.703 -0.9094  0.3772 -0.1604
12479SOL     OW38877   3.947   3.647   1.806 -0.0979 -0.1108  0.0874
12479SOL    HW138878   3.927   3.590   1.880 -0.5004 -1.3265 -0.9228
12479SOL    HW238879   4.040   3.669   1.817  0.5088 -2.2405 -0.2960
12480SOL     OW38880   7.959   7.210  11.913  0.1138  0.3579 -0.9774
12480SOL    HW138881   8.025   7.177  11.974 -0.2227 -0.9454 -1.3070
12480SOL    HW238882   8.000   7.287  11.874  0.9741  0.2577 -0.3098
12481SOL     OW38883   5.766   4.803  11.734 -0.0935  0.4033  0.3369
12481SOL    HW138884   5.694   4.865  11.738  0.0650  0.5640  0.7782
12481SOL    HW238885   5.832   4.846  11.679 -0.4027  0.1775 -0.2197
12482SOL     OW38886   2.241   7.231   4.651 -0.2583  0.0912 -0.0990
12482SOL    HW138887   2.292   7.263   4.577  0.0238  1.0374  0.4761
12482SOL    HW238888   2.173   7.298   4.664  1.4696  1.5497  2.3032
12483SOL     OW38889   0.521   5.201   9.066 -0.2397  0.8631 -0.0454
12483SOL    HW138890   0.607   5.191   9.108 -0.7256  0.1426  0.8298
12483SOL    HW238891   0.502   5.294   9.072 -0.7935  0.6725  2.4797
12484SOL     OW38892   6.141   0.416   8.030  0.8041  0.2731  0.4307
12484SOL    HW138893   6.079   0.366   8.082 -0.0209  0.1116 -0.6725
12484SOL    HW238894   6.112   0.507   8.038 -0.3197  0.0866 -0.9866
12485SOL     OW38895   4.970   2.457   1.685 -0.3764  0.1216 -0.7063
12485SOL    HW138896   4.947   2.368   1.713  0.5454  0.0248 -0.2403
12485SOL    HW238897   5.026   2.445   1.609  0.0799  0.2851 -0.4019
12486SOL     OW38898   6.739   4.693   2.531 -0.1375  0.6164  0.3478
12486SOL    HW138899   6.809   4.636   2.562 -0.4370 -0.2673 -0.5355
12486SOL    HW238900   6.760   4.709   2.439 -1.3255 -0.0640 -0.0644
12487SOL     OW38901   7.040   3.233   4.567 -0.3993 -0.2083  0.0416
12487SOL    HW138902   7.075   3.297   4.628 -0.9950  0.8925 -0.7515
12487SOL    HW238903   7.117   3.188   4.533  0.0427  0.2826  0.3772
12488SOL     OW38904   6.840   4.626   6.551 -0.2937 -0.0715 -0.4784
12488SOL    HW138905   6.930   4.597   6.535 -0.1687  0.2066 -0.2873
12488SOL    HW238906   6.850   4.710   6.595 -0.6363 -0.8595  1.1677
12489SOL     OW38907   0.128   4.960   3.239  0.5199  0.1849  0.1320
12489SOL    HW138908   0.084   4.898   3.181  0.9038  0.7700 -0.8093
12489SOL    HW238909   0.132   4.915   3.324 -1.7258  0.0354  0.2258
12490SOL     OW38910   0.937   4.690   8.761  0.5907 -0.0941 -0.1496
12490SOL    HW138911   0.945   4.763   8.700 -0.6369 -1.1698 -1.6896
12490SOL    HW238912   0.898   4.729   8.840  0.4390  1.0030 -0.7486
12491SOL     OW38913   7.773   0.739   5.358  0.2520  0.0745  0.5188
12491SOL    HW138914   7.802   0.793   5.431  1.3034  0.8011 -0.3917
12491SOL    HW238915   7.854   0.712   5.314 -0.3334  1.8807 -1.9165
12492SOL     OW38916   7.727   2.191   1.256 -0.7397  0.1215 -0.4040
12492SOL    HW138917   7.712   2.125   1.323  0.0766  0.6782  0.3495
12492SOL    HW238918   7.646   2.242   1.252  0.1038  1.8360  2.1683
12493SOL     OW38919   5.750   7.465   1.714 -0.0586 -0.2988  0.7137
12493SOL    HW138920   5.732   7.493   1.804  1.3185  1.5967  0.4605
12493SOL    HW238921   5.832   7.509   1.691 -1.3459  0.8701 -2.1350
12494SOL     OW38922   5.583   0.566   7.841 -0.0079  0.6196  0.2302
12494SOL    HW138923   5.507   0.569   7.900 -0.8477 -1.2764 -0.6743
12494SOL    HW238924   5.569   0.639   7.780 -1.8236 -0.4292 -0.6984
12495SOL     OW38925   7.893   7.020  12.242  0.2186  0.5858  0.1295
12495SOL    HW138926   7.932   7.058  12.321 -0.0647  1.3361 -0.0810
12495SOL    HW238927   7.964   6.971  12.201  0.4226  0.3598  0.7417
12496SOL     OW38928   7.854   6.887   5.861  0.1493 -0.8106 -0.3025
12496SOL    HW138929   7.801   6.957   5.823 -0.9329 -1.6809 -0.4504
12496SOL    HW238930   7.916   6.932   5.918 -1.1183  0.2024  0.3195
12497SOL     OW38931   6.442   4.158   8.466  0.0072  0.7911  0.3126
12497SOL    HW138932   6.477   4.069   8.472 -3.1329 -0.5825  0.3919
12497SOL    HW238933   6.411   4.165   8.376 -0.6258  1.4481  0.5783
12498SOL     OW38934   7.234   1.963   2.774 -0.7440  0.0400 -0.1812
12498SOL    HW138935   7.256   1.961   2.867 -0.8682 -0.9412 -0.1669
12498SOL    HW238936   7.198   2.051   2.760 -1.1419  0.0435  0.7926
12499SOL     OW38937   6.514   7.751   0.171  0.1660 -0.0634  0.6756
12499SOL    HW138938   6.550   7.746   0.260 -2.4467  0.0974  1.8346
12499SOL    HW238939   6.487   7.842   0.161  1.0369  0.0845 -0.5913
12500SOL     OW38940   7.805   4.600   2.360  0.1571 -0.3747  0.3395
12500SOL    HW138941   7.818   4.694   2.374 -0.6502 -0.2198  0.1230
12500SOL    HW238942   7.835   4.559   2.441 -1.2759  0.2352  1.2334
12501SOL     OW38943   4.630   2.414   0.437 -0.0996 -0.7769 -0.1755
12501SOL    HW138944   4.578   2.466   0.499  0.7797 -1.3144  1.0311
12501SOL    HW238945   4.580   2.334   0.425 -0.3194 -0.6303 -0.2473
12502SOL     OW38946   5.415   5.649   9.384 -0.0155 -0.0774  0.2573
12502SOL    HW138947   5.335   5.633   9.333  0.9253  0.1160 -1.3624
12502SOL    HW238948   5.474   5.578   9.358 -0.0825 -1.0144  2.4713
12503SOL     OW38949   6.343   0.835   5.705 -0.9218 -0.2744  0.0354
12503SOL    HW138950   6.344   0.792   5.620 -0.9824 -0.4360  0.1168
12503SOL    HW238951   6.318   0.767   5.767  1.3801 -0.7891  0.5175
12504SOL     OW38952   2.962   0.454  11.775  0.0828 -0.0656  0.3689
12504SOL    HW138953   2.885   0.450  11.831  0.4139 -0.8114  0.7812
12504SOL    HW238954   2.993   0.364  11.768 -0.0079 -0.0138 -1.1165
12505SOL     OW38955   1.154   3.679   4.848  0.7352  0.6731  0.5983
12505SOL    HW138956   1.155   3.765   4.891  0.4361  0.3557  1.2441
12505SOL    HW238957   1.071   3.677   4.801  1.2486  1.1906 -0.3642
12506SOL     OW38958   5.731   1.995   8.750 -0.1113  0.0679 -0.0568
12506SOL    HW138959   5.811   2.047   8.760  0.0904 -0.5717  2.0284
12506SOL    HW238960   5.755   1.908   8.782 -1.5932 -0.1730  0.4734
12507SOL     OW38961   0.194   5.726   6.601  0.1694 -0.4524 -0.2471
12507SOL    HW138962   0.243   5.696   6.525  2.0777 -0.0369  0.7464
12507SOL    HW238963   0.214   5.662   6.669 -0.6985 -0.2754  0.1880
12508SOL     OW38964   0.599   4.886  11.165  0.1171 -0.3038 -0.2555
12508SOL    HW138965   0.689   4.868  11.139  0.2018  0.7334 -0.7253
12508SOL    HW238966   0.562   4.934  11.091 -0.1035  1.3650  0.8701
12509SOL     OW38967   7.657   1.490   6.477 -0.0095 -0.5451 -0.1395
12509SOL    HW138968   7.746   1.510   6.449 -0.6505 -0.1780 -2.1237
12509SOL    HW238969   7.622   1.573   6.509  0.5265 -0.8214  1.2071
12510SOL     OW38970   6.100   0.817   4.101 -0.2647  0.1314 -0.0577
12510SOL    HW138971   6.047   0.827   4.022  1.4297 -0.0788 -1.2860
12510SOL    HW238972   6.156   0.895   4.103  1.1947 -0.8636 -0.2902
12511SOL     OW38973   1.736   7.355   6.123 -0.3293 -0.1413  0.7082
12511SOL    HW138974   1.686   7.277   6.100 -0.7214  0.0359  0.9515
12511SOL    HW238975   1.670   7.424   6.132  0.0002  0.1897  0.6184
12512SOL     OW38976   6.225   7.571   8.777  0.0073 -0.3686 -0.4877
12512SOL    HW138977   6.205   7.479   8.764 -0.7340 -0.2219 -0.4464
12512SOL    HW238978   6.317   7.580   8.754 -0.1022 -0.9856 -1.1820
12513SOL     OW38979   1.985   1.243   9.685  0.0013  0.7268  0.3436
12513SOL    HW138980   2.051   1.307   9.659  0.2543  0.3439  0.0440
12513SOL    HW238981   2.033   1.177   9.734 -0.2284  0.6473  0.4655
12514SOL     OW38982   5.714   2.517   7.790 -0.4694 -0.6655 -0.5361
12514SOL    HW138983   5.666   2.513   7.708 -0.7088 -0.2523 -0.4167
12514SOL    HW238984   5.647   2.511   7.858 -0.5562  1.6030 -0.3494
12515SOL     OW38985   2.764   7.399   4.310 -0.5489 -0.1928 -0.2275
12515SOL    HW138986   2.785   7.480   4.356  0.0675  0.8636 -2.2257
12515SOL    HW238987   2.824   7.335   4.346  0.0147  0.6242  0.3228
12516SOL     OW38988   6.036   3.477   8.920 -0.5284 -0.1317 -1.0232
12516SOL    HW138989   6.087   3.531   8.859 -0.8464  0.9379 -0.3748
12516SOL    HW238990   5.960   3.450   8.869  0.0464 -0.6844 -1.6114
12517SOL     OW38991   6.970   5.553   6.840  0.1308  0.2215 -0.2647
12517SOL    HW138992   7.039   5.493   6.813 -1.7858 -2.2481  0.0440
12517SOL    HW238993   6.923   5.507   6.909 -1.3413  2.1734  0.1354
12518SOL     OW38994   6.312   4.902   7.962  0.3277  0.0850 -0.2919
12518SOL    HW138995   6.222   4.926   7.940  0.4444  0.6087 -0.2040
12518SOL    HW238996   6.302   4.828   8.023 -0.0212 -0.3372 -0.8477
12519SOL     OW38997   3.406   2.209   6.107 -0.1283 -0.2420 -0.2849
12519SOL    HW138998   3.429   2.146   6.176  1.0397  1.0423  0.5455
12519SOL    HW238999   3.372   2.284   6.155  1.1693  0.8715 -1.0656
12520SOL     OW39000   2.810   1.614   3.177 -0.2433  0.2770 -0.1402
12520SOL    HW139001   2.871   1.559   3.227 -1.2386 -1.1725 -0.4664
12520SOL    HW239002   2.772   1.555   3.112 -1.1364  1.4362 -0.7048
12521SOL     OW39003   4.075   5.280   3.656  0.2240 -0.2053  0.0533
12521SOL    HW139004   4.061   5.267   3.562 -1.7526  0.4071  0.2131
12521SOL    HW239005   4.061   5.194   3.694  1.1555 -0.4837 -0.2006
12522SOL     OW39006   4.904   6.870  10.771 -0.0301  0.0225 -0.3531
12522SOL    HW139007   4.867   6.792  10.813  1.1068 -0.1557  0.3501
12522SOL    HW239008   4.869   6.943  10.823  0.8078 -0.1605  0.4886
12523SOL     OW39009   7.329   3.757   8.627  0.2931  0.4030  0.4436
12523SOL    HW139010   7.423   3.761   8.610  0.4270 -0.2867  1.0079
12523SOL    HW239011   7.295   3.694   8.562 -0.2191  2.5536 -1.5285
12524SOL     OW39012   3.924   1.209   8.983 -0.0798 -0.2577 -0.4973
12524SOL    HW139013   3.965   1.289   8.950  0.4986 -0.4595 -0.2696
12524SOL    HW239014   3.971   1.138   8.939  0.9888 -0.5483  1.0669
12525SOL     OW39015   2.663   3.237   0.128  0.1737 -0.2305 -0.2988
12525SOL    HW139016   2.644   3.148   0.157 -0.1779  0.2227  0.8956
12525SOL    HW239017   2.751   3.231   0.091  0.1985 -1.0506 -0.1318
12526SOL     OW39018   5.934   4.078   8.324  0.2256 -0.3515  0.1197
12526SOL    HW139019   5.922   4.079   8.229 -0.5059 -0.1858  0.2069
12526SOL    HW239020   6.010   4.134   8.339  2.1998 -2.6574 -0.5903
12527SOL     OW39021   5.275   0.960   6.933  0.7357  0.1979  0.0977
12527SOL    HW139022   5.186   0.940   6.905  0.5380  2.2944 -1.0225
12527SOL    HW239023   5.282   0.922   7.020 -0.8467 -1.0307 -0.2676
12528SOL     OW39024   5.680   7.688   9.564 -0.0456  0.0843 -0.0054
12528SOL    HW139025   5.750   7.665   9.503  0.5646  1.5343  0.0974
12528SOL    HW239026   5.717   7.671   9.651 -0.7499 -1.5388  0.0152
12529SOL     OW39027   2.642   5.863   7.219 -0.4048 -0.0157  0.1236
12529SOL    HW139028   2.713   5.834   7.163 -1.5025 -0.6162 -1.0045
12529SOL    HW239029   2.617   5.785   7.269  0.4267  0.4620  1.3541
12530SOL     OW39030   2.757   5.318   7.918  0.0370  0.0338  0.7922
12530SOL    HW139031   2.731   5.242   7.971  1.5510 -0.6241  0.6407
12530SOL    HW239032   2.726   5.297   7.830  1.5684 -1.0521  0.4702
12531SOL     OW39033   5.185   7.806  11.104  0.4912 -0.1552 -0.2385
12531SOL    HW139034   5.181   7.842  11.015 -0.9927  0.0483 -0.1225
12531SOL    HW239035   5.206   7.714  11.092 -0.6228 -0.3447 -0.8806
12532SOL     OW39036   3.369   0.641   8.677  0.5427  0.5933 -0.5490
12532SOL    HW139037   3.360   0.664   8.770  0.0618  0.6718 -0.6089
12532SOL    HW239038   3.397   0.550   8.677 -2.2243 -0.3712 -0.3113
12533SOL     OW39039   2.405   6.766   0.710 -0.3892  0.3754  0.3003
12533SOL    HW139040   2.492   6.730   0.728 -0.7059 -0.4563  0.2465
12533SOL    HW239041   2.415   6.818   0.630  0.1638  0.7164  0.5878
12534SOL     OW39042   2.650   7.280   1.434  0.6318 -0.3447  0.2998
12534SOL    HW139043   2.561   7.273   1.468  1.0236  0.2153  1.5005
12534SOL    HW239044   2.694   7.200   1.466  1.3207  0.7231  2.2138
12535SOL     OW39045   2.584   5.437   7.075 -0.4170  0.0459 -0.3488
12535SOL    HW139046   2.490   5.437   7.058 -0.3753 -4.1094 -1.6680
12535SOL    HW239047   2.623   5.467   6.993 -0.5687  0.4984 -0.2560
12536SOL     OW39048   0.267   5.485   3.971  0.1268 -0.4042  0.3931
12536SOL    HW139049   0.173   5.466   3.977 -0.0273 -0.2117 -1.0225
12536SOL    HW239050   0.308   5.399   3.965 -0.1083 -0.4697 -0.5077
12537SOL     OW39051   7.219   4.342   1.574  0.6700 -0.0130  0.1554
12537SOL    HW139052   7.135   4.303   1.550  1.3820 -0.4297 -1.8859
12537SOL    HW239053   7.282   4.270   1.562  1.5110  0.7110  0.1552
12538SOL     OW39054   6.083   5.240  11.451 -0.2023 -0.2469  0.5658
12538SOL    HW139055   6.176   5.256  11.436 -0.1414  1.2087  2.1512
12538SOL    HW239056   6.080   5.161  11.506  0.1500  0.0238  0.9838
12539SOL     OW39057   7.765   6.236   1.993  0.3807 -0.4608 -0.1190
12539SOL    HW139058   7.727   6.238   2.081 -0.1048 -1.4724 -0.2871
12539SOL    HW239059   7.690   6.217   1.936  0.4590  1.3680 -0.9038
12540SOL     OW39060   2.212   2.357   5.468 -0.5908 -0.3608 -0.4193
12540SOL    HW139061   2.266   2.285   5.500  0.2350 -0.6014 -2.2308
12540SOL    HW239062   2.274   2.420   5.432 -1.4345 -0.8818 -3.0525
12541SOL     OW39063   3.971   5.760   9.313  0.0283  0.1134 -0.5557
12541SOL    HW139064   3.919   5.702   9.368  0.2686  1.1395  0.8078
12541SOL    HW239065   4.008   5.824   9.374 -0.2951  1.7373 -1.9869
12542SOL     OW39066   4.869   3.101   1.728 -0.2947 -0.3771  0.5394
12542SOL    HW139067   4.817   3.048   1.667 -1.2254  0.3116  0.7110
12542SOL    HW239068   4.804   3.143   1.784  0.4892  0.0902  1.1113
12543SOL     OW39069   3.243   3.495   7.918 -0.6795 -0.2398  0.1353
12543SOL    HW139070   3.215   3.555   7.987 -0.1451 -0.3537  0.4581
12543SOL    HW239071   3.196   3.414   7.937  0.5006 -0.7102  1.1987
12544SOL     OW39072   7.594   2.289  12.040 -1.0153  0.5979  0.2233
12544SOL    HW139073   7.657   2.217  12.042 -0.7410  0.8570  1.5537
12544SOL    HW239074   7.631   2.352  11.978 -1.3055 -0.4154 -1.0299
12545SOL     OW39075   4.221   0.585  10.468  0.5672  0.2669  0.2597
12545SOL    HW139076   4.170   0.632  10.535  0.7838 -1.7860  1.9803
12545SOL    HW239077   4.301   0.636  10.459  0.0957  1.1394  0.7885
12546SOL     OW39078   2.295   7.232   0.156  0.2871 -0.1970  0.1001
12546SOL    HW139079   2.324   7.271   0.073  2.0017 -1.5951 -0.0286
12546SOL    HW239080   2.347   7.151   0.163 -2.4870 -2.0494  0.7361
12547SOL     OW39081   3.984   2.029   6.961 -0.2388  0.1370  0.4207
12547SOL    HW139082   3.896   2.059   6.939 -0.3582 -0.3427  0.2313
12547SOL    HW239083   3.970   1.945   7.006  0.1175  0.0594  0.3875
12548SOL     OW39084   3.163   3.805   8.342 -0.3990  0.3872 -0.2023
12548SOL    HW139085   3.172   3.721   8.297 -0.6502 -1.2540  2.5567
12548SOL    HW239086   3.171   3.870   8.273  2.5845 -1.7627 -2.1530
12549SOL     OW39087   1.341   6.162   3.688  0.4348  0.0261  0.0945
12549SOL    HW139088   1.404   6.205   3.631 -2.5033  1.9973 -1.9657
12549SOL    HW239089   1.343   6.213   3.769  1.9389 -0.4104  0.3557
12550SOL     OW39090   3.860   4.606  10.480  0.8586  0.2140 -0.6818
12550SOL    HW139091   3.929   4.672  10.475 -0.7852  2.0149 -0.8925
12550SOL    HW239092   3.811   4.616  10.398 -1.0483  0.6578  0.4434
12551SOL     OW39093   1.557   6.828  10.048 -0.5082  0.0041  0.0379
12551SOL    HW139094   1.528   6.900   9.992 -1.1547 -0.5782 -0.3947
12551SOL    HW239095   1.483   6.812  10.106  0.5793  1.3960  1.9284
12552SOL     OW39096   5.820   2.637   6.926  0.0746 -0.1883 -0.4607
12552SOL    HW139097   5.797   2.652   6.834 -1.4607  0.4099  0.0037
12552SOL    HW239098   5.776   2.556   6.949 -1.4200  0.8156  0.3542
12553SOL     OW39099   4.417   3.150  10.841 -0.0347 -0.1207  0.2414
12553SOL    HW139100   4.467   3.077  10.876 -0.3020 -0.3280  0.1913
12553SOL    HW239101   4.467   3.179  10.764 -0.0529 -0.4020  0.1235
12554SOL     OW39102   6.295   6.408   3.866 -0.5118  0.4428 -0.0604
12554SOL    HW139103   6.323   6.316   3.867 -1.3038  0.2018  0.2010
12554SOL    HW239104   6.286   6.431   3.959 -1.0839  0.5498 -0.1445
12555SOL     OW39105   1.856   3.244   4.762  0.5404  0.0899  0.6625
12555SOL    HW139106   1.936   3.294   4.745  0.0951  0.4218 -0.5126
12555SOL    HW239107   1.837   3.261   4.854  2.7299 -1.3113  1.4672
12556SOL     OW39108   4.819   4.138   5.345  0.4346 -0.2987  0.2160
12556SOL    HW139109   4.891   4.200   5.329 -1.1151  1.7898  0.8379
12556SOL    HW239110   4.813   4.131   5.440  1.3360 -2.4340  0.1701
12557SOL     OW39111   4.943   7.100   9.359 -0.4812  0.2200  0.1481
12557SOL    HW139112   4.886   7.120   9.284 -0.6060 -0.3879  0.0747
12557SOL    HW239113   5.030   7.126   9.330 -0.4096 -0.6997 -0.4989
12558SOL     OW39114   7.597   0.630   4.192 -0.5136 -0.2917 -0.1783
12558SOL    HW139115   7.579   0.614   4.284 -0.1404  3.2541  0.6302
12558SOL    HW239116   7.671   0.691   4.192  0.5278 -1.3766 -2.9065
12559SOL     OW39117   2.412   3.478   9.082  0.7572  0.1025 -0.1592
12559SOL    HW139118   2.367   3.415   9.139  1.4370 -1.2353 -1.0322
12559SOL    HW239119   2.344   3.508   9.021  0.1640  1.1024  0.9686
12560SOL     OW39120   2.435   5.970  12.166 -0.1869  0.1220  0.6779
12560SOL    HW139121   2.372   5.970  12.238 -2.7205 -0.7385 -1.3782
12560SOL    HW239122   2.399   5.908  12.102  2.9129 -0.5958 -0.5532
12561SOL     OW39123   4.155   5.548   0.552 -0.4599 -0.7931 -0.0042
12561SOL    HW139124   4.209   5.483   0.508 -0.1077 -1.2391  1.0409
12561SOL    HW239125   4.067   5.509   0.554 -0.3784 -0.9714  0.0866
12562SOL     OW39126   0.729   6.289  12.235  0.3344  0.1644 -0.0896
12562SOL    HW139127   0.657   6.274  12.174 -0.0215 -0.0788  0.3749
12562SOL    HW239128   0.729   6.212  12.291  0.6171  0.4060  0.2494
12563SOL     OW39129   2.677   7.644   7.109  0.2726  0.0135  0.4075
12563SOL    HW139130   2.641   7.611   7.191 -2.2482  0.8413 -0.2697
12563SOL    HW239131   2.646   7.583   7.042  2.0219 -0.4710 -0.0237
12564SOL     OW39132   1.001   0.064   1.808  0.1119 -0.0928  0.1753
12564SOL    HW139133   1.001   0.009   1.887 -0.3049  0.5055  0.6015
12564SOL    HW239134   0.926   0.123   1.820  0.4591  0.4653 -0.3450
12565SOL     OW39135   2.509   2.420  12.151  0.5241 -0.2961 -0.0008
12565SOL    HW139136   2.455   2.482  12.103  0.2843 -0.0646  0.5678
12565SOL    HW239137   2.563   2.378  12.083  0.1173 -0.0499 -0.4815
12566SOL     OW39138   4.784   1.023   2.018  0.1057  0.0136 -0.5083
12566SOL    HW139139   4.708   1.065   1.977 -1.7424 -3.8970 -1.5931
12566SOL    HW239140   4.830   0.981   1.945  0.2174 -2.0567  0.6740
12567SOL     OW39141   3.613   3.595  11.673 -0.2894  0.1516 -0.3205
12567SOL    HW139142   3.554   3.581  11.746  0.9645 -0.3230  0.6454
12567SOL    HW239143   3.662   3.674  11.696  0.8305 -0.5749 -0.1353
12568SOL     OW39144   4.240   6.548  10.655 -0.1200 -0.0538  0.2622
12568SOL    HW139145   4.318   6.515  10.698  0.9101  1.3527 -0.4411
12568SOL    HW239146   4.225   6.489  10.582 -1.5498 -2.1257  2.0959
12569SOL     OW39147   1.497   3.875   5.573 -0.9309  0.1233  0.1227
12569SOL    HW139148   1.509   3.793   5.622  0.8158 -0.1491 -0.6985
12569SOL    HW239149   1.427   3.854   5.510 -0.2650 -0.8810 -0.3194
12570SOL     OW39150   7.897   5.296   4.290  0.2522  0.0210  0.4877
12570SOL    HW139151   7.828   5.304   4.224 -0.7579  1.6762  1.6466
12570SOL    HW239152   7.851   5.277   4.371  0.9048  2.5461  1.5725
12571SOL     OW39153   0.520   5.357   0.658  0.4146  0.2352 -0.3218
12571SOL    HW139154   0.579   5.339   0.585  0.9049 -1.5233  0.4493
12571SOL    HW239155   0.574   5.350   0.736 -0.4598  0.2655  0.3110
12572SOL     OW39156   3.264   5.001   2.091 -0.0245 -0.1694  0.2013
12572SOL    HW139157   3.255   5.050   2.173  0.0984 -0.1593  0.2098
12572SOL    HW239158   3.312   4.922   2.116  0.3303  0.0029  0.0769
12573SOL     OW39159   1.466   4.935   3.902 -0.8557 -0.6025 -0.2176
12573SOL    HW139160   1.383   4.979   3.919 -0.6414  0.2132 -1.1846
12573SOL    HW239161   1.508   4.930   3.988 -1.8215 -0.8612  0.2488
12574SOL     OW39162   1.906   7.728  11.970 -0.4670  0.1000  0.0719
12574SOL    HW139163   1.863   7.729  12.055 -0.8623  1.8855 -0.1212
12574SOL    HW239164   1.905   7.636  11.944 -0.9702 -0.3797  1.6630
12575SOL     OW39165   2.075   5.334   1.287 -0.3829  0.3008 -0.2680
12575SOL    HW139166   2.030   5.294   1.361 -1.6165 -0.5476 -1.4339
12575SOL    HW239167   2.080   5.265   1.221 -0.6463  1.4376 -1.5279
12576SOL     OW39168   1.559   3.994   9.709 -0.1875  0.2169 -0.0743
12576SOL    HW139169   1.639   3.948   9.734 -0.2175  0.7121  0.9777
12576SOL    HW239170   1.489   3.930   9.724 -0.1322  0.2764  0.4703
12577SOL     OW39171   2.088   1.891  11.139 -0.6242  0.7586 -0.1474
12577SOL    HW139172   2.104   1.927  11.227 -0.3279  1.5037 -0.5001
12577SOL    HW239173   2.044   1.808  11.155  2.6424 -0.9542  0.8938
12578SOL     OW39174   3.898   3.584   1.191 -0.0403 -0.4945 -0.5597
12578SOL    HW139175   3.913   3.513   1.129 -1.1732  0.0013 -1.4526
12578SOL    HW239176   3.803   3.596   1.190 -0.0074  0.0335  0.7223
12579SOL     OW39177   0.327   1.071   0.057  0.6442  0.2284 -0.1941
12579SOL    HW139178   0.310   1.062  -0.037  0.7605  1.7294 -0.3815
12579SOL    HW239179   0.264   1.136   0.086  2.1681  1.5654  0.2622
12580SOL     OW39180   6.566   7.568   9.223  0.6886 -0.2700  0.1505
12580SOL    HW139181   6.568   7.559   9.128  2.5387 -2.0776  0.3029
12580SOL    HW239182   6.616   7.647   9.241  0.4477  0.0032 -0.3460
12581SOL     OW39183   1.398   2.057   0.653  0.1753 -0.1766  0.0989
12581SOL    HW139184   1.352   2.130   0.694  1.2040 -0.0203  0.9947
12581SOL    HW239185   1.482   2.053   0.697  0.3037 -1.6472 -0.2249
12582SOL     OW39186   2.144   6.872   5.055  0.2069  0.3976  0.4274
12582SOL    HW139187   2.085   6.833   4.990  0.4527  1.0738 -0.2229
12582SOL    HW239188   2.160   6.961   5.021  1.1749  0.3993  0.8771
12583SOL     OW39189   3.386   7.938   2.751  0.5628 -0.5982 -0.0776
12583SOL    HW139190   3.399   7.878   2.678 -0.1010 -0.4355 -0.3394
12583SOL    HW239191   3.386   7.882   2.829  0.5015 -0.8690 -0.2711
12584SOL     OW39192   2.550   2.368   2.621  0.3605 -0.2017  0.1984
12584SOL    HW139193   2.646   2.362   2.618  0.3406 -0.0991 -1.1060
12584SOL    HW239194   2.531   2.394   2.711  1.5747  0.0472  0.4077
12585SOL     OW39195   5.216   1.852   4.625 -0.0814  0.4663  0.0677
12585SOL    HW139196   5.260   1.767   4.616  2.8578  1.6496  1.7719
12585SOL    HW239197   5.238   1.899   4.545  0.9217  0.6666  0.4463
12586SOL     OW39198   6.275   5.441   1.320  0.5471 -0.0358  0.0357
12586SOL    HW139199   6.317   5.357   1.301  1.5699  0.3548  0.4778
12586SOL    HW239200   6.212   5.453   1.249  0.4698 -1.1213 -0.0890
12587SOL     OW39201   2.062   1.247   1.829 -0.6468  0.4599 -0.3293
12587SOL    HW139202   2.130   1.181   1.838 -0.3657  0.9213  1.3405
12587SOL    HW239203   1.981   1.203   1.857 -0.6141  0.5884 -0.0361
12588SOL     OW39204   2.015   3.008  10.892 -0.1824 -0.1381 -0.3125
12588SOL    HW139205   2.050   2.920  10.876 -0.9974 -0.2597 -1.5408
12588SOL    HW239206   2.064   3.039  10.968 -0.5399 -2.0042  0.7332
12589SOL     OW39207   0.320   7.190  10.958  0.2852 -0.8788 -0.3183
12589SOL    HW139208   0.290   7.272  10.999 -0.2933 -0.5817 -1.2840
12589SOL    HW239209   0.241   7.135  10.955  0.2942 -0.8651 -1.0617
12590SOL     OW39210   5.716   7.178   2.052  0.4107  0.0069 -0.4057
12590SOL    HW139211   5.622   7.166   2.063  0.1005  0.3841 -2.2329
12590SOL    HW239212   5.725   7.216   1.965  2.3075 -0.8403 -0.6367
12591SOL     OW39213   3.144   1.630   8.423  0.0837 -0.1324  0.2383
12591SOL    HW139214   3.171   1.679   8.345 -0.5196 -1.0834 -0.5920
12591SOL    HW239215   3.210   1.562   8.433 -0.8174 -1.1642 -0.5664
12592SOL     OW39216   0.849   4.323   8.263  0.2713 -0.3861  0.0302
12592SOL    HW139217   0.879   4.379   8.335  1.2130 -0.8056 -0.0225
12592SOL    HW239218   0.919   4.327   8.199 -0.6215  0.0964 -0.9511
12593SOL     OW39219   7.105   3.268   9.942  0.2348 -0.5278 -0.1926
12593SOL    HW139220   7.079   3.329  10.010  2.1921 -0.0653  0.1847
12593SOL    HW239221   7.200   3.266   9.945  0.2839 -2.6102 -1.0747
12594SOL     OW39222   4.963   1.549   3.638 -0.1695 -0.2520  0.4311
12594SOL    HW139223   4.913   1.468   3.646  1.0996 -0.8825  2.8285
12594SOL    HW239224   4.899   1.615   3.610 -0.8809 -2.3539 -3.5880
12595SOL     OW39225   0.035   3.497  11.697 -0.4143  0.6868 -0.2218
12595SOL    HW139226  -0.060   3.500  11.684 -0.3325 -0.4075 -1.1509
12595SOL    HW239227   0.069   3.569  11.643 -0.6853  0.8746 -0.1433
12596SOL     OW39228   2.491   5.432  12.025  0.0799  0.1639  0.8175
12596SOL    HW139229   2.402   5.462  12.003 -0.0399 -0.7483 -0.0269
12596SOL    HW239230   2.540   5.513  12.040 -0.8540  0.6868  1.1553
12597SOL     OW39231   3.645   0.667  10.407 -0.0460 -0.2503 -0.6452
12597SOL    HW139232   3.720   0.684  10.463 -2.1719  0.2083  2.2723
12597SOL    HW239233   3.663   0.718  10.327  1.5120  2.0412  1.0342
12598SOL     OW39234   1.893   7.803  11.710 -0.4269  0.1421 -0.2719
12598SOL    HW139235   1.945   7.876  11.676 -1.7676  2.0166  1.4741
12598SOL    HW239236   1.926   7.788  11.798  0.2672 -1.8919 -0.8074
12599SOL     OW39237   2.331   4.528   5.415 -0.1451  0.0285 -0.0954
12599SOL    HW139238   2.275   4.468   5.367  0.7023  0.1492 -1.2821
12599SOL    HW239239   2.396   4.472   5.457 -0.6883 -0.0484  0.6679
12600SOL     OW39240   3.599   1.705   7.657 -0.1745 -0.1119  0.1647
12600SOL    HW139241   3.524   1.681   7.712  0.0205  0.7128  0.8269
12600SOL    HW239242   3.659   1.631   7.664 -1.0929 -0.9552 -0.6961
12601SOL     OW39243   7.363   5.880   9.077  0.0497 -0.4555  0.1379
12601SOL    HW139244   7.361   5.864   9.171 -1.2634  2.4579  0.7167
12601SOL    HW239245   7.434   5.942   9.064 -0.5799  0.1311 -0.6108
12602SOL     OW39246   4.227   6.981   4.952  0.2662 -0.3225  0.0974
12602SOL    HW139247   4.180   6.910   4.995 -1.3291  1.9231  2.3264
12602SOL    HW239248   4.194   7.061   4.993  2.1679  1.7474 -2.0598
12603SOL     OW39249   6.948   6.094   0.464 -0.1780  0.3060 -0.2479
12603SOL    HW139250   6.979   6.095   0.555  0.5151  2.2050 -0.4559
12603SOL    HW239251   6.853   6.082   0.471  0.2324 -4.0482  0.4711
12604SOL     OW39252   4.507   4.529  11.543 -0.8189 -0.3617  0.1709
12604SOL    HW139253   4.415   4.556  11.540 -0.6197  0.4672  0.9985
12604SOL    HW239254   4.508   4.453  11.602 -0.9777 -0.3555  0.1813
12605SOL     OW39255   1.569   0.658  11.540 -0.0096  0.1157  0.2723
12605SOL    HW139256   1.566   0.724  11.470 -0.5976 -0.8724 -0.6692
12605SOL    HW239257   1.630   0.592  11.507 -0.0124 -0.1869  0.8662
12606SOL     OW39258   1.232   6.482   8.959 -0.5548  0.3850 -0.2941
12606SOL    HW139259   1.248   6.507   8.868  0.9036  2.2921  0.4139
12606SOL    HW239260   1.154   6.532   8.984 -0.4473  0.5329 -0.2534
12607SOL     OW39261   0.401   3.150   8.125  0.0984 -0.4537  0.0689
12607SOL    HW139262   0.402   3.103   8.209 -0.9676 -0.2357  0.2191
12607SOL    HW239263   0.333   3.217   8.136  0.8922  0.4747 -0.4927
12608SOL     OW39264   0.707   2.135   9.752  0.2378  0.1022  0.2178
12608SOL    HW139265   0.773   2.069   9.772 -0.2587 -0.4600  0.0273
12608SOL    HW239266   0.735   2.172   9.668 -0.1667 -0.7700 -0.3179
12609SOL     OW39267   4.899   6.485   0.233  0.2655  0.1969  0.5128
12609SOL    HW139268   4.803   6.481   0.222  0.3243  0.7980 -0.3629
12609SOL    HW239269   4.912   6.478   0.327 -0.6304 -0.1501  0.6288
12610SOL     OW39270   3.690   4.320   3.957  0.1448  0.2859  0.4666
12610SOL    HW139271   3.771   4.289   3.915 -0.2655  0.5681 -0.5564
12610SOL    HW239272   3.716   4.338   4.047  1.2887  0.6206  0.0936
12611SOL     OW39273   1.945   3.983   2.854  0.0241  0.4378  0.1596
12611SOL    HW139274   1.989   4.068   2.848 -1.1115  1.0981  0.8072
12611SOL    HW239275   1.925   3.959   2.764  1.2668  0.3511 -0.1073
12612SOL     OW39276   0.225   2.356   7.413  0.7478  0.5444 -0.1587
12612SOL    HW139277   0.253   2.266   7.395  1.4464  0.6392  0.4115
12612SOL    HW239278   0.230   2.364   7.509  1.4023  1.4095 -0.2541
12613SOL     OW39279   5.415   4.549   3.943  0.1526 -0.3956  0.7670
12613SOL    HW139280   5.334   4.559   3.893 -1.1095 -0.7688  2.6473
12613SOL    HW239281   5.466   4.484   3.893 -1.2862 -1.1677  0.2433
12614SOL     OW39282   7.206   1.329   6.708 -0.1318 -0.5458 -0.0779
12614SOL    HW139283   7.197   1.326   6.613 -0.0506  1.1587 -0.1677
12614SOL    HW239284   7.295   1.296   6.725  0.2419  0.1349 -0.6869
12615SOL     OW39285   4.629   1.409   2.548 -0.1434  0.1024 -0.3720
12615SOL    HW139286   4.581   1.327   2.563  1.7168 -0.9870 -0.0789
12615SOL    HW239287   4.615   1.429   2.456 -0.7976 -0.4134 -0.3905
12616SOL     OW39288   4.057   0.101   3.536 -0.2455 -0.0689 -0.3728
12616SOL    HW139289   4.109   0.106   3.456 -1.7031  0.3777 -1.3327
12616SOL    HW239290   4.050   0.007   3.555 -0.4993 -0.2283 -1.2100
12617SOL     OW39291   1.198   3.086   4.082  0.2551 -0.4365 -0.4067
12617SOL    HW139292   1.263   3.016   4.073  0.9061 -0.3653  2.8119
12617SOL    HW239293   1.241   3.163   4.045  1.5102 -0.6952  0.4556
12618SOL     OW39294   4.727   2.096  11.066  0.1772 -0.0428 -0.6652
12618SOL    HW139295   4.748   2.042  11.142  0.5333 -0.1768 -0.8575
12618SOL    HW239296   4.731   2.037  10.991 -0.3665  0.0461 -0.7714
12619SOL     OW39297   1.309   7.300  11.620  0.0543  0.3906  0.4277
12619SOL    HW139298   1.258   7.378  11.596  0.0905  0.3324  0.1625
12619SOL    HW239299   1.322   7.309  11.715 -1.0934  0.0249  0.6341
12620SOL     OW39300   2.838   2.453   2.140  0.5860  0.7966  0.0785
12620SOL    HW139301   2.874   2.541   2.156  2.2565  0.1752 -0.0031
12620SOL    HW239302   2.822   2.418   2.227 -1.2787  1.6024  0.1038
12621SOL     OW39303   3.874   0.377   2.459 -0.1180  0.3727  0.0983
12621SOL    HW139304   3.784   0.343   2.462 -0.0397  0.2111  1.0540
12621SOL    HW239305   3.894   0.399   2.550  1.6220 -1.7288  0.3096
12622SOL     OW39306   2.289   6.129   6.703 -0.1268 -0.3560  0.7123
12622SOL    HW139307   2.230   6.056   6.683 -1.5679  1.0077 -0.2068
12622SOL    HW239308   2.276   6.191   6.631  2.6022 -0.0737  0.3500
12623SOL     OW39309   4.656   5.884   3.161  0.1026 -0.4775 -0.5139
12623SOL    HW139310   4.568   5.886   3.122 -2.0026 -1.9893  3.5797
12623SOL    HW239311   4.668   5.973   3.195 -1.0470 -0.8514  1.0129
12624SOL     OW39312   5.171   2.429   5.071  0.4372  0.2036 -0.9762
12624SOL    HW139313   5.158   2.477   5.152  1.6702 -0.1063 -0.5680
12624SOL    HW239314   5.159   2.337   5.095  1.5391  0.0469 -0.9445
12625SOL     OW39315   1.915   1.312   7.692  0.2740 -0.3053 -0.4263
12625SOL    HW139316   1.883   1.312   7.602  1.1103  0.7253 -0.7427
12625SOL    HW239317   1.836   1.325   7.745 -0.2291 -0.9595 -0.9912
12626SOL     OW39318   3.445   2.292   3.274  0.0908  0.3020  0.3608
12626SOL    HW139319   3.446   2.233   3.199  1.7226  0.3614  0.3128
12626SOL    HW239320   3.469   2.378   3.238 -0.0714  0.5335  0.7902
12627SOL     OW39321   2.479   1.920   3.577  0.2518 -0.0466  0.1088
12627SOL    HW139322   2.442   1.970   3.650  2.7756  0.6370  1.0386
12627SOL    HW239323   2.436   1.955   3.500 -0.1618  1.5415  1.0062
12628SOL     OW39324   4.514   7.845   5.965 -0.2549 -0.1017 -0.0967
12628SOL    HW139325   4.447   7.874   5.903  0.7241  2.1191 -0.1989
12628SOL    HW239326   4.584   7.810   5.911 -0.6691 -1.0380 -0.0543
12629SOL     OW39327   4.118   6.183   8.338 -0.0121 -0.3206  0.4938
12629SOL    HW139328   4.084   6.231   8.413  0.5282  1.1843 -0.1761
12629SOL    HW239329   4.042   6.167   8.283 -0.2254 -0.3735  0.8017
12630SOL     OW39330   0.931   7.885   6.092  0.3951 -0.1255  0.1456
12630SOL    HW139331   0.966   7.916   6.175 -1.1248 -1.2526  1.2779
12630SOL    HW239332   0.839   7.914   6.093  0.4346  0.1285 -1.3050
12631SOL     OW39333   0.928   7.102  10.622 -0.3314 -0.1004 -0.1776
12631SOL    HW139334   0.865   7.122  10.553 -1.8410  2.1828  1.7091
12631SOL    HW239335   1.007   7.150  10.597 -0.1160 -0.9743 -1.2927
12632SOL     OW39336   4.881   3.532   0.656  0.4043 -0.4138  0.6070
12632SOL    HW139337   4.804   3.511   0.603  0.0530  0.8901  0.5607
12632SOL    HW239338   4.849   3.597   0.719  1.6055  0.6336  0.1654
12633SOL     OW39339   5.884   1.365   7.745  0.2079  0.7992  0.1165
12633SOL    HW139340   5.922   1.277   7.740 -0.4030  0.4580  1.1880
12633SOL    HW239341   5.920   1.411   7.669  1.6676  0.0684  0.3277
12634SOL     OW39342   4.288   2.845   9.293 -0.3593  0.0972 -0.7008
12634SOL    HW139343   4.275   2.939   9.303 -1.9866 -0.3667  3.0689
12634SOL    HW239344   4.353   2.823   9.360 -2.8305 -1.8859  1.2392
12635SOL     OW39345   3.592   5.519   2.127 -0.1423 -0.1289 -0.1737
12635SOL    HW139346   3.650   5.448   2.098  0.3876 -1.0234  2.7361
12635SOL    HW239347   3.622   5.596   2.078  2.4944 -0.9036  0.0800
12636SOL     OW39348   1.353   2.096   2.997 -0.2292  0.0143 -0.4260
12636SOL    HW139349   1.293   2.108   2.924 -1.4069  1.5383  0.7204
12636SOL    HW239350   1.336   2.008   3.028 -2.0611  0.4780 -0.0138
12637SOL     OW39351   7.611   1.869   5.477 -0.2636  0.3253  0.3310
12637SOL    HW139352   7.543   1.854   5.412  0.3161  1.6460 -0.6308
12637SOL    HW239353   7.581   1.823   5.555 -3.3746  2.6130  0.6415
12638SOL     OW39354   4.098   4.899   1.142 -0.9988  0.1853 -0.6060
12638SOL    HW139355   4.155   4.918   1.067 -1.2966 -0.4952 -1.0222
12638SOL    HW239356   4.097   4.803   1.146 -2.5871  0.1578 -0.9864
12639SOL     OW39357   0.657   4.731   3.843  0.1169 -0.7479 -0.3071
12639SOL    HW139358   0.613   4.799   3.894 -2.3516 -2.1410 -0.4479
12639SOL    HW239359   0.693   4.778   3.768 -1.2519  0.4833 -0.2436
12640SOL     OW39360   3.318   2.210   1.300  0.2165  0.4091 -0.9782
12640SOL    HW139361   3.285   2.136   1.250 -0.5810  0.0988 -0.0346
12640SOL    HW239362   3.382   2.252   1.243  0.6253 -0.9605 -1.5627
12641SOL     OW39363   5.666   4.667   7.748 -0.3861  0.1973 -0.5828
12641SOL    HW139364   5.592   4.649   7.690  0.3961  1.2049 -1.9365
12641SOL    HW239365   5.653   4.758   7.776  0.7728  0.6891 -1.5474
12642SOL     OW39366   7.499   4.653   4.251  1.1508  0.3311  0.4435
12642SOL    HW139367   7.449   4.674   4.330 -1.3958  2.0192 -1.4810
12642SOL    HW239368   7.510   4.558   4.255 -2.2675 -0.1642  1.0321
12643SOL     OW39369   4.496   4.299  11.075  0.3194 -0.3282 -0.2193
12643SOL    HW139370   4.425   4.241  11.102  1.6147 -1.1866  1.4908
12643SOL    HW239371   4.574   4.265  11.119  1.9348  0.2964 -2.3927
12644SOL     OW39372   6.878   1.983   7.856  0.1457 -0.6520 -0.2518
12644SOL    HW139373   6.873   1.936   7.939  0.6047  2.4414  1.6799
12644SOL    HW239374   6.967   2.017   7.853 -0.9940  2.7473  0.1619
12645SOL     OW39375   0.320   3.018  11.135 -0.2486  0.6955 -0.5499
12645SOL    HW139376   0.296   3.092  11.190  0.4283  1.4491 -1.2434
12645SOL    HW239377   0.334   3.055  11.048 -0.5492 -0.3523 -1.0672
12646SOL     OW39378   7.152   7.335   7.081 -0.1094  0.0737 -0.2331
12646SOL    HW139379   7.165   7.246   7.047 -0.5647 -0.5299  1.1056
12646SOL    HW239380   7.240   7.368   7.097  0.0539 -0.9748  1.2696
12647SOL     OW39381   3.376   7.664  10.814  0.1511 -0.3356  0.1067
12647SOL    HW139382   3.375   7.667  10.909  2.4129 -0.1363  0.1864
12647SOL    HW239383   3.431   7.589  10.792 -0.3684 -0.4113 -1.0523
12648SOL     OW39384   7.766   6.286   0.361 -0.0585 -0.5804 -0.0990
12648SOL    HW139385   7.804   6.211   0.316  3.8638  0.8501  0.5133
12648SOL    HW239386   7.796   6.279   0.451 -2.3961  0.0313  0.8039
12649SOL     OW39387   6.254   4.786   9.214 -0.0320  0.7343 -0.1183
12649SOL    HW139388   6.251   4.699   9.173 -1.3410  0.5204  0.3984
12649SOL    HW239389   6.348   4.803   9.225  0.2494 -0.8013  0.1635
12650SOL     OW39390   6.057   4.626   0.202 -0.4024 -0.2062  0.1402
12650SOL    HW139391   6.147   4.653   0.220 -0.1812 -1.3820  0.8575
12650SOL    HW239392   6.004   4.695   0.243  0.1547  0.1944  0.2123
12651SOL     OW39393   5.373   1.981   7.901 -0.2616  0.4698 -0.1688
12651SOL    HW139394   5.459   2.016   7.921 -0.4544  0.0569  1.5741
12651SOL    HW239395   5.323   2.056   7.870  0.2366  1.0724  0.4622
12652SOL     OW39396   3.809   2.141  10.692  0.3723 -0.1985  0.5155
12652SOL    HW139397   3.771   2.123  10.778 -2.7055  1.6389 -0.3138
12652SOL    HW239398   3.795   2.235  10.678  0.6197 -0.4581 -2.0546
12653SOL     OW39399   3.897   7.649   6.156  0.8815  0.0946 -0.2970
12653SOL    HW139400   3.920   7.684   6.242  1.7515 -0.7912 -0.1498
12653SOL    HW239401   3.931   7.713   6.093 -1.0894  1.5343 -0.0038
12654SOL     OW39402   0.955   6.420   9.630 -0.6264 -0.3249 -0.0101
12654SOL    HW139403   1.034   6.373   9.604  0.3081  1.5582 -0.8342
12654SOL    HW239404   0.889   6.394   9.566 -0.5537 -1.5130  0.3718
12655SOL     OW39405   5.055   1.688   8.195 -0.1364 -0.4510  0.2865
12655SOL    HW139406   5.086   1.676   8.105  0.8751  0.8851  0.4112
12655SOL    HW239407   5.133   1.718   8.242 -1.2493  1.4831  0.9900
12656SOL     OW39408   6.784   0.729   4.145  0.2693 -0.0555  0.4526
12656SOL    HW139409   6.875   0.756   4.128  0.3429 -1.4503 -1.8593
12656SOL    HW239410   6.775   0.646   4.097 -2.0856 -0.2127  1.0659
12657SOL     OW39411   5.717   2.239   7.559  0.1791  0.2440 -0.6731
12657SOL    HW139412   5.797   2.207   7.518 -0.1413 -1.0031 -0.3815
12657SOL    HW239413   5.665   2.273   7.486  0.1644 -0.7421 -1.1489
12658SOL     OW39414   0.851   7.390   1.505 -0.1540  0.1535  0.9171
12658SOL    HW139415   0.811   7.318   1.456  2.1740  0.3800 -1.4974
12658SOL    HW239416   0.798   7.467   1.482  0.2121  0.0394 -0.3638
12659SOL     OW39417   2.322   2.876  11.343 -0.7435  0.2893 -0.0723
12659SOL    HW139418   2.325   2.961  11.386 -0.0699 -0.0494  0.5897
12659SOL    HW239419   2.304   2.895  11.251 -0.6969  1.1377  0.0879
12660SOL     OW39420   7.749   0.232   4.457 -0.3067 -0.4620  0.1915
12660SOL    HW139421   7.743   0.258   4.365 -1.9803 -1.5708 -0.0481
12660SOL    HW239422   7.795   0.305   4.500 -0.4888  0.5692 -1.3070
12661SOL     OW39423   6.066   6.212   9.642  0.0220  0.1130  0.1457
12661SOL    HW139424   5.971   6.205   9.643 -0.0205  0.6669  0.5137
12661SOL    HW239425   6.083   6.306   9.648  0.5794  0.1276 -1.1416
12662SOL     OW39426   4.860   5.967   6.435 -0.2550 -0.3502  0.0481
12662SOL    HW139427   4.829   6.044   6.482 -0.9780 -0.4970 -0.1838
12662SOL    HW239428   4.931   5.933   6.489  0.4566  0.7966 -0.1328
12663SOL     OW39429   1.612   3.771   5.975  0.3632 -0.2441 -0.4880
12663SOL    HW139430   1.582   3.792   6.063 -1.1168  0.2675 -1.0661
12663SOL    HW239431   1.693   3.820   5.964  0.1876  0.2488  0.3530
12664SOL     OW39432   7.698   3.984   5.170 -0.0781  0.1175  0.0705
12664SOL    HW139433   7.654   4.017   5.092 -0.0959 -2.0212 -0.8975
12664SOL    HW239434   7.781   4.032   5.173 -0.0614  0.2006 -1.2955
12665SOL     OW39435   6.881   4.140   0.771  0.1931  0.5144 -0.1167
12665SOL    HW139436   6.875   4.222   0.722  1.0591  1.3258  1.0786
12665SOL    HW239437   6.967   4.143   0.813 -0.2329 -0.4545  0.8919
12666SOL     OW39438   6.042   2.612   8.203  0.0951  0.0296 -0.1761
12666SOL    HW139439   6.097   2.540   8.233  0.2354  0.0851 -0.2989
12666SOL    HW239440   6.090   2.650   8.129 -0.8292 -0.8813 -1.2880
12667SOL     OW39441   3.782   1.454  11.315 -0.2317  0.3695 -0.0562
12667SOL    HW139442   3.830   1.485  11.238  0.6863 -0.0865  0.3191
12667SOL    HW239443   3.849   1.415  11.371 -1.0020  0.0012  0.6289
12668SOL     OW39444   5.237   2.069   3.300 -0.5322  0.3496 -0.4090
12668SOL    HW139445   5.191   2.003   3.249 -0.9915 -0.4481  0.9956
12668SOL    HW239446   5.187   2.150   3.286  0.0154  0.4241 -2.1066
12669SOL     OW39447   2.067   7.520   2.892  0.3311  0.3917  0.0996
12669SOL    HW139448   1.975   7.507   2.872  0.2198  1.7881 -0.3981
12669SOL    HW239449   2.074   7.613   2.915  1.3034 -0.0703  1.9172
12670SOL     OW39450   0.085   6.709   4.943 -0.5375 -0.1782 -0.3837
12670SOL    HW139451   0.044   6.696   5.028  1.5982 -0.1745  0.7071
12670SOL    HW239452   0.041   6.786   4.906  1.1553  2.4201  2.5445
12671SOL     OW39453   3.599   7.595   1.956  0.1283  0.2792 -0.0706
12671SOL    HW139454   3.506   7.584   1.977 -0.2906  0.3162 -1.8101
12671SOL    HW239455   3.615   7.688   1.970  0.4640 -0.0653  2.2316
12672SOL     OW39456   4.774   1.243   6.051 -0.3593 -0.1211 -0.2409
12672SOL    HW139457   4.733   1.221   6.134  0.1687 -0.5623 -0.0962
12672SOL    HW239458   4.804   1.160   6.016  0.7095  0.2324 -0.1897
12673SOL     OW39459   2.493   2.032  12.239 -0.1039  0.3046 -0.4993
12673SOL    HW139460   2.423   2.091  12.213  0.4064  0.7350 -0.9040
12673SOL    HW239461   2.489   1.960  12.177 -0.8579 -0.1996  0.1178
12674SOL     OW39462   0.812   6.683   1.030  0.2489 -0.1530  0.0449
12674SOL    HW139463   0.883   6.747   1.041 -0.0329 -0.0456  1.5345
12674SOL    HW239464   0.782   6.695   0.941  0.4347  1.5672  0.1851
12675SOL     OW39465   7.009   4.914   6.860  0.4700 -0.6403  0.1125
12675SOL    HW139466   7.001   4.878   6.949 -1.3332 -0.6445 -0.0137
12675SOL    HW239467   6.992   5.008   6.872  2.0983 -0.3036  0.0057
12676SOL     OW39468   4.646   0.440   8.276  0.2851 -0.0186 -0.0235
12676SOL    HW139469   4.597   0.445   8.358  0.6274  2.0161  0.1182
12676SOL    HW239470   4.671   0.348   8.269 -3.7121 -1.2652 -0.2663
12677SOL     OW39471   3.688   1.384   2.584 -0.1165  0.1711  0.1582
12677SOL    HW139472   3.716   1.473   2.564  0.1651 -0.2496 -1.4575
12677SOL    HW239473   3.593   1.391   2.598 -0.3703  0.5212 -1.4957
12678SOL     OW39474   0.911   7.927   4.626 -0.3235 -0.3596 -0.1237
12678SOL    HW139475   0.862   7.980   4.563  1.8815  0.7787 -0.9917
12678SOL    HW239476   0.992   7.976   4.641  0.9224 -2.5118  0.6293
12679SOL     OW39477   6.587   5.050   6.992  0.4113 -0.2367 -0.3270
12679SOL    HW139478   6.638   5.108   6.935 -1.6431 -0.0675 -2.1103
12679SOL    HW239479   6.539   5.108   7.050  0.2235 -0.2686 -0.4504
12680SOL     OW39480   0.917   4.119   5.735 -0.1322 -0.1030  0.8038
12680SOL    HW139481   0.877   4.139   5.820  0.3050  2.1570  0.5365
12680SOL    HW239482   0.987   4.183   5.726 -0.9427  0.5317 -1.7848
12681SOL     OW39483   3.865   6.030   4.588 -0.3156 -0.2744 -0.3879
12681SOL    HW139484   3.926   5.980   4.534 -0.0403 -0.2336 -0.1154
12681SOL    HW239485   3.813   5.964   4.634 -1.2714 -0.3281 -1.4827
12682SOL     OW39486   5.024   5.797  11.406  0.0292 -0.5592  0.2657
12682SOL    HW139487   5.097   5.858  11.422  0.5738 -1.1123 -0.0572
12682SOL    HW239488   5.041   5.763  11.319 -0.9566 -0.2510 -0.0575
12683SOL     OW39489   1.335   2.321  12.051 -0.1028 -0.3610 -0.4124
12683SOL    HW139490   1.292   2.300  11.968  0.2390 -1.7041 -0.2873
12683SOL    HW239491   1.266   2.316  12.117  0.1828 -2.7709 -0.1744
12684SOL     OW39492   4.463   3.667  11.954 -0.2079  0.2750  0.2213
12684SOL    HW139493   4.536   3.613  11.923 -0.1947 -0.5662  1.6571
12684SOL    HW239494   4.410   3.683  11.876 -0.9259 -2.9111 -0.0593
12685SOL     OW39495   6.897   6.189   5.058 -0.1179 -0.4056  0.2871
12685SOL    HW139496   6.896   6.284   5.047  0.7338 -0.6060 -2.0679
12685SOL    HW239497   6.970   6.173   5.118  0.0751  0.4051  0.2843
12686SOL     OW39498   0.941   1.902   2.642  0.3757  0.3188 -0.1753
12686SOL    HW139499   0.936   1.817   2.600  0.8844  0.6094 -0.8346
12686SOL    HW239500   0.852   1.919   2.673 -0.2931  0.5879 -2.1084
12687SOL     OW39501   5.151   3.156   9.493  0.0733  0.1284 -0.6044
12687SOL    HW139502   5.092   3.229   9.513 -0.2615 -0.5046  0.8105
12687SOL    HW239503   5.163   3.111   9.576  1.2039 -0.7654 -1.2225
12688SOL     OW39504   3.701   6.708   7.968  0.3229  0.3801  0.0661
12688SOL    HW139505   3.722   6.767   7.896  0.3396  3.5425  2.4635
12688SOL    HW239506   3.786   6.684   8.005  0.2545  1.3995  0.9347
12689SOL     OW39507   4.166   4.403   1.951 -0.0048  0.6622 -0.5947
12689SOL    HW139508   4.175   4.494   1.922 -2.7723  1.1998 -0.1168
12689SOL    HW239509   4.128   4.410   2.039  3.0552 -0.9935  0.9850
12690SOL     OW39510   7.759   5.201  12.151 -0.2844  0.0581 -0.0420
12690SOL    HW139511   7.676   5.241  12.177  0.1439  0.8858  0.0934
12690SOL    HW239512   7.759   5.206  12.055 -0.4062  0.0370 -0.0423
12691SOL     OW39513   2.141   1.575   5.149  0.2191 -0.2641 -0.0225
12691SOL    HW139514   2.175   1.487   5.133  0.3880 -0.7606  2.5925
12691SOL    HW239515   2.121   1.610   5.062  0.4252 -2.7551 -1.1399
12692SOL     OW39516   4.217   6.625   0.718  0.3887  1.3896 -0.2503
12692SOL    HW139517   4.167   6.618   0.799 -0.5437 -0.8859 -0.9474
12692SOL    HW239518   4.302   6.586   0.739 -0.6153 -1.3817 -0.8528
12693SOL     OW39519   5.160   7.236   7.358 -0.0034 -0.0415 -0.3391
12693SOL    HW139520   5.127   7.238   7.268  0.8865  1.2412 -0.6728
12693SOL    HW239521   5.084   7.211   7.411 -0.4582 -1.1645 -1.4606
12694SOL     OW39522   2.192   2.306   4.536 -0.3241 -0.7441  0.2067
12694SOL    HW139523   2.220   2.396   4.522  0.4226 -1.1769 -1.2763
12694SOL    HW239524   2.188   2.268   4.448  1.1903 -2.6840  0.9155
12695SOL     OW39525   7.460   4.342   6.851  0.2640 -0.5725 -0.7272
12695SOL    HW139526   7.438   4.354   6.759  2.2663 -1.3035 -1.3376
12695SOL    HW239527   7.394   4.279   6.883 -2.3528  1.9368 -0.7645
12696SOL     OW39528   4.330   3.366  10.601  0.4637  0.5290  0.6022
12696SOL    HW139529   4.403   3.394  10.545 -1.9291  2.8395 -1.6551
12696SOL    HW239530   4.290   3.448  10.630 -1.0186 -0.6551  2.0664
12697SOL     OW39531   5.546   0.208   6.399 -0.0338 -0.0768 -0.4918
12697SOL    HW139532   5.631   0.172   6.374 -0.5563 -1.1048 -0.8490
12697SOL    HW239533   5.492   0.131   6.417 -0.9777  0.5544 -0.5675
12698SOL     OW39534   4.742   0.068   2.010  0.3065  0.1665 -0.6961
12698SOL    HW139535   4.772   0.076   2.100 -0.5741  0.5814 -0.4203
12698SOL    HW239536   4.784   0.141   1.964 -0.4403  0.9001 -0.2556
12699SOL     OW39537   5.116   3.347   2.142 -0.2435 -0.0489 -0.0137
12699SOL    HW139538   5.089   3.436   2.117 -0.0466  0.2584  0.8418
12699SOL    HW239539   5.041   3.292   2.120  0.5449 -0.1201 -3.0017
12700SOL     OW39540   5.319   6.986  11.111 -0.1875 -0.2968  0.1768
12700SOL    HW139541   5.268   7.049  11.162  0.1644 -1.2375  1.7375
12700SOL    HW239542   5.261   6.962  11.039 -0.2890  1.8674 -0.5586
12701SOL     OW39543   0.567   1.327   7.606  0.3741 -0.3202  0.2569
12701SOL    HW139544   0.528   1.303   7.691 -0.8778  3.1670  0.8742
12701SOL    HW239545   0.621   1.404   7.626  1.5887 -0.5665 -1.8521
12702SOL     OW39546   0.056   5.129   1.729 -0.0445  0.4372  0.5938
12702SOL    HW139547   0.048   5.216   1.768 -0.4439 -0.1726  1.9334
12702SOL    HW239548   0.113   5.081   1.789 -1.5804 -0.8682  1.0740
12703SOL     OW39549   5.036   7.001   8.757  0.1940  0.6421  0.0750
12703SOL    HW139550   4.974   7.024   8.688  1.0669  2.4299 -0.1639
12703SOL    HW239551   4.987   6.943   8.815 -1.6296  1.8070 -0.2272
12704SOL     OW39552   5.340   7.194   4.783 -0.0585 -0.4848 -0.0610
12704SOL    HW139553   5.342   7.162   4.873  1.0619 -1.5212 -0.4156
12704SOL    HW239554   5.433   7.197   4.757 -0.3827 -0.6640 -1.3231
12705SOL     OW39555   6.565   2.414   1.272  0.0862 -0.1596 -0.4742
12705SOL    HW139556   6.587   2.330   1.234 -2.1917 -0.1545 -1.9670
12705SOL    HW239557   6.472   2.426   1.254  0.4331  2.9422 -0.8422
12706SOL     OW39558   3.302   4.532  11.547 -0.0477  0.0210 -0.1900
12706SOL    HW139559   3.237   4.520  11.477 -1.5696  0.3413  1.1266
12706SOL    HW239560   3.288   4.458  11.606  1.0182 -0.0714 -0.0230
12707SOL     OW39561   1.335   0.309   4.644  0.1216 -0.1651 -0.7333
12707SOL    HW139562   1.252   0.305   4.691  0.1518  1.0216 -0.5577
12707SOL    HW239563   1.347   0.401   4.624  0.3618 -0.5733 -2.6321
12708SOL     OW39564   3.591   0.083   1.922 -0.4604 -0.6940 -0.3230
12708SOL    HW139565   3.624   0.000   1.957 -0.5274 -0.4112  0.4400
12708SOL    HW239566   3.496   0.073   1.920 -0.5221 -0.3586  0.5259
12709SOL     OW39567   1.450   2.815   2.279 -0.0182  0.6889 -0.0955
12709SOL    HW139568   1.538   2.778   2.274 -0.1637  0.3135  0.1262
12709SOL    HW239569   1.444   2.850   2.368 -0.7520 -0.9647  0.5513
12710SOL     OW39570   0.805   2.258   4.925  0.2865 -0.4268 -0.3089
12710SOL    HW139571   0.882   2.256   4.867 -0.0539  0.0462 -0.7803
12710SOL    HW239572   0.814   2.179   4.978  1.5603  0.0485  0.2386
12711SOL     OW39573   1.931   2.333   6.708 -0.2480 -0.1734 -0.0860
12711SOL    HW139574   1.853   2.388   6.722 -0.1385 -0.1988  0.7010
12711SOL    HW239575   1.897   2.243   6.707 -0.2772 -0.1618 -0.1201
12712SOL     OW39576   1.892   7.759   0.404  0.1300  0.2049 -0.5306
12712SOL    HW139577   1.907   7.846   0.443 -0.0663  0.3214 -0.7067
12712SOL    HW239578   1.975   7.713   0.413  0.3086  0.5003 -0.6528
12713SOL     OW39579   1.912   1.508  12.378  0.4358  0.1118 -0.2673
12713SOL    HW139580   2.007   1.507  12.388  0.4966  1.6108 -0.4641
12713SOL    HW239581   1.880   1.537  12.464  0.0253 -2.0017  0.3505
12714SOL     OW39582   1.667   4.114   4.985  0.0392  0.0403  0.4536
12714SOL    HW139583   1.691   4.117   4.892  0.3122  0.2758  0.5307
12714SOL    HW239584   1.610   4.189   4.997 -1.2729 -0.8737  0.1264
12715SOL     OW39585   3.074   7.846   1.788  0.0765  0.3096 -0.2478
12715SOL    HW139586   3.159   7.886   1.806  0.2807 -0.6965  1.1443
12715SOL    HW239587   3.093   7.772   1.731  0.7532 -2.2333  2.9642
12716SOL     OW39588   5.041   5.656  11.155 -0.2060  0.3407  0.5547
12716SOL    HW139589   4.972   5.663  11.090  1.6079  0.6949 -1.4499
12716SOL    HW239590   5.079   5.569  11.141  0.8766  0.8233  0.3722
12717SOL     OW39591   6.304   6.986   0.505 -0.0098 -0.2595 -0.0901
12717SOL    HW139592   6.367   6.956   0.570 -1.2278 -0.0613  1.2130
12717SOL    HW239593   6.281   6.906   0.457  1.7630 -0.2140 -1.1136
12718SOL     OW39594   4.497   2.740   8.291 -0.1002  0.2489 -0.6842
12718SOL    HW139595   4.517   2.701   8.205  0.3925 -1.8312  0.2959
12718SOL    HW239596   4.411   2.779   8.280  1.3379  3.2510 -3.0860
12719SOL     OW39597   4.086   5.114   9.444 -0.0209  0.6680 -0.2790
12719SOL    HW139598   4.148   5.142   9.511 -0.5169  1.8173 -0.2811
12719SOL    HW239599   4.141   5.093   9.368  0.4613  0.3599  0.1520
12720SOL     OW39600   0.563   2.884   9.254  0.5344  0.4766  0.3328
12720SOL    HW139601   0.474   2.916   9.267  0.0985 -0.8703  0.7215
12720SOL    HW239602   0.616   2.939   9.313  0.0888  1.7378 -0.3926
12721SOL     OW39603   0.432   6.899   8.462  0.1613  0.0233  0.5384
12721SOL    HW139604   0.490   6.841   8.412  0.3384  0.2268  0.5063
12721SOL    HW239605   0.345   6.884   8.425  0.2960  0.2009  0.1423
12722SOL     OW39606   1.164   6.586   0.328 -0.4674 -0.0039 -0.2492
12722SOL    HW139607   1.178   6.528   0.253  1.2119  0.1793 -0.1231
12722SOL    HW239608   1.248   6.587   0.373 -1.1606  0.6825  1.0820
12723SOL     OW39609   1.885   6.030  10.175 -0.1913  0.1121  0.6248
12723SOL    HW139610   1.820   6.066  10.116  0.2020 -0.3447 -0.0952
12723SOL    HW239611   1.855   5.941  10.194  0.9127 -0.6039 -0.8176
12724SOL     OW39612   6.734   1.384   1.858 -0.0542  0.1033 -0.3874
12724SOL    HW139613   6.825   1.412   1.860 -0.3081  0.9144  1.5528
12724SOL    HW239614   6.684   1.466   1.849 -0.6738 -0.0042  1.6350
12725SOL     OW39615   0.269   3.397   7.449 -0.8011  0.2319  0.0134
12725SOL    HW139616   0.305   3.477   7.485 -1.5211  1.8149 -2.5017
12725SOL    HW239617   0.345   3.350   7.414 -0.5223  0.4935  0.2623
12726SOL     OW39618   6.234   2.593   4.010  0.5341 -0.4975  0.2478
12726SOL    HW139619   6.257   2.680   4.044 -1.6612 -0.6185  2.2836
12726SOL    HW239620   6.225   2.539   4.088 -1.6300 -1.6379 -0.7251
12727SOL     OW39621   6.754   0.371  12.356 -0.3579  0.0584  0.5936
12727SOL    HW139622   6.819   0.301  12.360 -0.8887 -0.4128  1.2242
12727SOL    HW239623   6.803   0.448  12.326 -0.1161 -0.9638 -1.8053
12728SOL     OW39624   5.366   2.664   0.750 -0.5214  0.0443  0.5659
12728SOL    HW139625   5.309   2.591   0.728 -0.3381 -0.7206  2.3960
12728SOL    HW239626   5.308   2.728   0.792 -0.0498 -0.9985  3.0014
12729SOL     OW39627   1.670   1.428   2.473 -0.2905  0.2985  0.2827
12729SOL    HW139628   1.700   1.382   2.552  0.9884  1.2951  0.4084
12729SOL    HW239629   1.607   1.492   2.505  0.4656  0.9229  0.5715
12730SOL     OW39630   7.260   7.842   5.933 -0.5279 -0.1364 -0.3467
12730SOL    HW139631   7.179   7.800   5.903 -0.7533  0.4582 -0.5814
12730SOL    HW239632   7.230   7.919   5.981 -0.0769  0.9526 -1.7509
12731SOL     OW39633   0.309   3.338  11.614  0.1421 -0.3074 -0.3023
12731SOL    HW139634   0.399   3.370  11.621  0.0615 -0.0576 -0.4185
12731SOL    HW239635   0.304   3.300  11.526 -0.4585  1.5158 -1.0911
12732SOL     OW39636   6.050   6.202  11.767  0.6594 -0.2285  0.4177
12732SOL    HW139637   6.085   6.292  11.768  1.6150 -0.5073 -1.5307
12732SOL    HW239638   6.081   6.163  11.848  1.5149  0.7643  0.5901
12733SOL     OW39639   2.513   7.046   1.495 -0.2604 -0.5589 -0.3598
12733SOL    HW139640   2.446   7.100   1.537 -1.0575 -1.2337 -0.7339
12733SOL    HW239641   2.477   7.024   1.409  0.9413  0.0083 -1.0463
12734SOL     OW39642   7.683   5.263   1.728  0.0482 -0.1839  0.2948
12734SOL    HW139643   7.722   5.259   1.640 -1.4236 -2.6229 -0.3406
12734SOL    HW239644   7.745   5.215   1.784  1.5898  2.3799  0.9460
12735SOL     OW39645   2.699   1.456  11.714  0.2121  0.1662 -0.1609
12735SOL    HW139646   2.670   1.488  11.629 -0.4419 -0.0076 -0.0064
12735SOL    HW239647   2.765   1.389  11.693 -0.0812 -0.0080 -0.5375
12736SOL     OW39648   3.797   3.910   3.062  0.1900 -0.1870 -0.0580
12736SOL    HW139649   3.768   3.848   3.129 -0.7283 -0.5727 -0.7903
12736SOL    HW239650   3.716   3.944   3.025  0.6807 -0.0349 -1.0193
12737SOL     OW39651   3.147   3.925   8.034  0.4317 -0.1324  0.0060
12737SOL    HW139652   3.065   3.877   8.024  0.4568  0.1721 -2.3432
12737SOL    HW239653   3.122   4.017   8.023  0.9599  0.0473  0.2798
12738SOL     OW39654   6.009   6.585   0.097 -0.1265  0.2701  0.2026
12738SOL    HW139655   6.078   6.643   0.066 -0.7847  0.7584 -0.3805
12738SOL    HW239656   6.050   6.534   0.168  0.7003  0.8351  0.1418
12739SOL     OW39657   0.442   7.880   4.735 -0.5317  0.0699 -0.3475
12739SOL    HW139658   0.394   7.934   4.798  0.9159  1.6411 -0.5066
12739SOL    HW239659   0.376   7.823   4.697 -2.2712  2.0580 -0.4883
12740SOL     OW39660   1.438   1.285   8.199  0.0410 -0.2682  0.0918
12740SOL    HW139661   1.456   1.379   8.207 -2.0559  0.1945 -0.0604
12740SOL    HW239662   1.506   1.243   8.252  0.8604  1.3431  0.3908
12741SOL     OW39663   7.913   2.316  11.951  0.8890 -0.1016 -0.0845
12741SOL    HW139664   7.873   2.296  12.035  0.3105  0.4746 -0.2142
12741SOL    HW239665   8.002   2.344  11.972  0.6435  0.3600  0.3673
12742SOL     OW39666   6.595   7.386   4.989 -0.0040  0.1710 -0.5506
12742SOL    HW139667   6.512   7.433   4.990 -0.1583 -0.0433 -1.6489
12742SOL    HW239668   6.650   7.431   5.053  0.0711  2.2438 -1.9876
12743SOL     OW39669   6.538   0.423   2.224  0.8148  0.3116  0.5445
12743SOL    HW139670   6.577   0.368   2.292 -0.6508  0.6648  1.7421
12743SOL    HW239671   6.513   0.363   2.155 -0.2051 -0.4975  1.5718
12744SOL     OW39672   3.724   2.430   2.349 -0.2930 -0.2281 -0.3903
12744SOL    HW139673   3.644   2.420   2.297 -1.4331 -1.3845  1.4514
12744SOL    HW239674   3.700   2.398   2.436  1.9392  0.2504  0.4734
12745SOL     OW39675   4.837   1.682   0.443 -0.1833 -0.1458  0.0789
12745SOL    HW139676   4.840   1.617   0.372  1.1723 -0.4981  0.4184
12745SOL    HW239677   4.844   1.766   0.399 -2.0742 -0.1813 -0.3763
12746SOL     OW39678   7.891   7.009   1.010 -0.1530 -0.2653 -0.1669
12746SOL    HW139679   7.876   7.070   0.938 -0.2924 -0.0070  0.0771
12746SOL    HW239680   7.803   6.983   1.038 -0.1707  0.8637  0.9409
12747SOL     OW39681   7.192   1.574   8.335  0.1496 -0.2286 -0.0585
12747SOL    HW139682   7.228   1.608   8.254  1.9334  0.2099  0.8663
12747SOL    HW239683   7.170   1.651   8.387  1.0831 -0.4606  0.7211
12748SOL     OW39684   0.869   2.077   7.399 -0.5976  0.1035 -0.0927
12748SOL    HW139685   0.881   1.986   7.426  0.6394 -0.1108 -1.2503
12748SOL    HW239686   0.916   2.128   7.465 -0.1162 -0.2029 -0.1939
12749SOL     OW39687   7.710   4.125  11.885 -0.1396  0.1192 -0.1252
12749SOL    HW139688   7.702   4.064  11.958  1.8760 -1.3502 -1.0540
12749SOL    HW239689   7.749   4.074  11.814  0.7647  2.2276 -1.2539
12750SOL     OW39690   2.513   5.066   4.766  0.2814  0.4527  0.2480
12750SOL    HW139691   2.501   5.062   4.671  1.7379  0.1291  0.0653
12750SOL    HW239692   2.457   5.138   4.794  0.1998  0.8597 -0.9172
12751SOL     OW39693   3.297   0.675   6.572 -0.3178 -0.3495  0.3404
12751SOL    HW139694   3.203   0.688   6.588 -0.7904 -0.9731 -1.7123
12751SOL    HW239695   3.318   0.736   6.501  1.2574  0.9778  1.8441
12752SOL     OW39696   7.894   1.118   8.029  0.2814  0.3242 -0.0964
12752SOL    HW139697   7.893   1.027   7.999  1.3855 -0.0758  1.0102
12752SOL    HW239698   7.811   1.154   7.997 -0.9303 -1.4993  0.7834
12753SOL     OW39699   5.977   7.598   6.798  0.8378 -0.0139 -1.2219
12753SOL    HW139700   5.999   7.512   6.834  0.1050  0.2989  0.0374
12753SOL    HW239701   6.033   7.659   6.845 -1.4328  0.6091  0.8678
12754SOL     OW39702   2.891   7.832  11.547 -0.4649  0.1345 -0.3266
12754SOL    HW139703   2.909   7.840  11.641  0.7168  0.9012 -0.5961
12754SOL    HW239704   2.829   7.903  11.529  1.1260  1.5247 -0.5412
12755SOL     OW39705   7.904   3.811   7.783  0.4475 -0.0449 -0.2420
12755SOL    HW139706   7.948   3.772   7.708  0.6472  0.9338 -0.6462
12755SOL    HW239707   7.812   3.787   7.772  0.7520 -1.5543  0.2631
12756SOL     OW39708   0.343   6.364   6.897 -0.3880 -0.2428  0.4171
12756SOL    HW139709   0.272   6.310   6.862  0.4894 -1.0189 -0.2219
12756SOL    HW239710   0.421   6.308   6.892 -0.0211 -0.0421  2.7112
12757SOL     OW39711   2.403   2.196   4.891  0.1770  0.7157  0.0421
12757SOL    HW139712   2.498   2.187   4.886  0.1626 -0.2766  1.0465
12757SOL    HW239713   2.370   2.137   4.822  0.2735 -0.0902  0.6716
12758SOL     OW39714   6.564   6.637   0.538  0.3686 -0.1929 -0.3600
12758SOL    HW139715   6.659   6.628   0.530  0.6217 -2.4520  2.9289
12758SOL    HW239716   6.552   6.704   0.605 -0.2327 -1.0085  0.3782
12759SOL     OW39717   6.501   2.573   4.848 -0.0625 -0.0821  0.4489
12759SOL    HW139718   6.596   2.568   4.861 -0.1869 -2.1953  0.8489
12759SOL    HW239719   6.480   2.498   4.792 -1.2401  1.6454 -1.5735
12760SOL     OW39720   2.214   6.769   7.435  0.5843 -0.4433 -0.1861
12760SOL    HW139721   2.297   6.776   7.483  0.4183  0.0177  0.0374
12760SOL    HW239722   2.193   6.675   7.438 -0.5250 -0.2269  2.5853
12761SOL     OW39723   6.157   0.615  10.875 -0.3178  0.1804  0.1348
12761SOL    HW139724   6.225   0.649  10.934  0.1711  0.5365 -0.6154
12761SOL    HW239725   6.189   0.529  10.848 -1.6001 -1.0005  2.1057
12762SOL     OW39726   5.332   3.050   0.338 -0.1457 -0.7540 -0.1448
12762SOL    HW139727   5.240   3.066   0.315  0.0066  1.3501  0.4456
12762SOL    HW239728   5.330   3.021   0.429 -0.2897 -2.0776 -0.5538
12763SOL     OW39729   2.968   2.393   3.551  0.4435  0.5243  0.1595
12763SOL    HW139730   2.953   2.442   3.631 -0.1307  0.0262  0.3683
12763SOL    HW239731   2.931   2.306   3.568  1.2498  0.0790 -0.2757
12764SOL     OW39732   3.765   5.282   2.054  0.0003  0.2376  0.3705
12764SOL    HW139733   3.734   5.222   1.986 -1.8086  0.6886  0.7684
12764SOL    HW239734   3.774   5.227   2.132 -1.0568  0.3558  0.5784
12765SOL     OW39735   6.977   4.646   3.301  0.2572 -0.1741  0.5601
12765SOL    HW139736   6.908   4.686   3.248  1.6528  0.8843 -0.5331
12765SOL    HW239737   6.941   4.562   3.328 -1.9802  0.9074  1.1852
12766SOL     OW39738   4.688   1.871   5.829 -0.0849  0.1583 -0.0079
12766SOL    HW139739   4.706   1.842   5.740  2.2894 -1.8251  1.0063
12766SOL    HW239740   4.608   1.825   5.854 -1.8207  2.1291 -1.6337
12767SOL     OW39741   5.006   2.527   3.204  0.2655 -0.4976 -0.1802
12767SOL    HW139742   5.065   2.596   3.235  0.4898 -0.3822 -0.8467
12767SOL    HW239743   4.988   2.550   3.113  0.7602 -1.6051 -0.5701
12768SOL     OW39744   6.362   2.914   6.795 -0.7982  0.0048 -0.4837
12768SOL    HW139745   6.268   2.898   6.801 -0.9138  0.4537 -0.9952
12768SOL    HW239746   6.373   3.001   6.834 -0.5615 -0.1476 -0.2104
12769SOL     OW39747   6.174   1.089   0.985 -0.4174 -0.0403 -0.2269
12769SOL    HW139748   6.145   1.178   1.004 -1.6170 -0.6352  0.8668
12769SOL    HW239749   6.200   1.054   1.070  1.2405 -0.3676 -0.8181
12770SOL     OW39750   1.082   1.255  12.160 -0.2423  1.0036  0.2840
12770SOL    HW139751   1.107   1.333  12.110 -0.6525  0.4094 -0.8926
12770SOL    HW239752   1.027   1.204  12.100  1.7098 -1.2270  0.2118
12771SOL     OW39753   7.920   0.396   5.468  0.2467  0.1483  0.1006
12771SOL    HW139754   8.002   0.397   5.516  0.5953 -0.0111 -0.4748
12771SOL    HW239755   7.938   0.447   5.388 -0.1667 -0.0124 -0.1022
12772SOL     OW39756   7.872   1.688  10.413 -0.1909 -0.1729  0.0447
12772SOL    HW139757   7.811   1.760  10.396 -0.2246 -0.5529 -1.5837
12772SOL    HW239758   7.861   1.629  10.339  2.8924  0.2704 -0.9416
12773SOL     OW39759   5.389   3.031   9.964  0.0690  0.6230 -0.1163
12773SOL    HW139760   5.346   2.954  10.000 -0.0747  1.0028  0.5250
12773SOL    HW239761   5.477   3.029  10.001 -0.0286  0.9245  0.1409
12774SOL     OW39762   6.887   0.894   5.854  0.1658 -0.0932  0.8597
12774SOL    HW139763   6.940   0.824   5.816 -1.5084 -1.4555  0.8911
12774SOL    HW239764   6.941   0.973   5.845  1.0168 -0.8478 -1.7285
12775SOL     OW39765   2.772   7.552   6.572 -0.1271  0.4420 -0.0197
12775SOL    HW139766   2.800   7.627   6.520  0.7958  1.9607  2.5054
12775SOL    HW239767   2.686   7.577   6.606 -0.6669 -0.4875 -0.6324
12776SOL     OW39768   0.365   7.308   1.867 -0.3187  0.4686 -0.3705
12776SOL    HW139769   0.413   7.260   1.935 -1.9231 -0.6702 -0.0077
12776SOL    HW239770   0.427   7.315   1.795  1.0194  0.6539  0.7460
12777SOL     OW39771   5.098   2.809   9.032  0.5867  0.4576 -0.3523
12777SOL    HW139772   5.103   2.730   9.086  2.4332 -1.0238 -2.4694
12777SOL    HW239773   5.120   2.880   9.092  0.1450 -0.7843  1.3592
12778SOL     OW39774   7.836   2.779   7.493  0.1104  0.1292  0.3104
12778SOL    HW139775   7.829   2.729   7.574 -1.9359  0.0217  0.1413
12778SOL    HW239776   7.816   2.715   7.424 -4.3498  1.2770  0.1804
12779SOL     OW39777   5.800   1.744  11.960  0.3900  0.1595  0.0616
12779SOL    HW139778   5.823   1.651  11.956 -0.3756 -0.0472  0.3542
12779SOL    HW239779   5.705   1.745  11.974  0.5630  0.9781  1.2967
12780SOL     OW39780   3.625   1.782   9.006  0.4673 -0.0670 -0.4255
12780SOL    HW139781   3.693   1.830   9.052 -0.6009  0.9197  0.1898
12780SOL    HW239782   3.591   1.720   9.070 -0.3153  0.5914 -0.1792
12781SOL     OW39783   0.277   3.218   8.447  0.2974 -0.1256 -0.2449
12781SOL    HW139784   0.220   3.170   8.386  0.6540 -1.7935  0.6715
12781SOL    HW239785   0.265   3.310   8.423 -2.4002 -0.4346 -0.4109
12782SOL     OW39786   7.093   7.342   2.690 -0.5083  0.2398 -0.5136
12782SOL    HW139787   7.146   7.412   2.651 -2.7377  1.4800 -1.5312
12782SOL    HW239788   7.133   7.261   2.657  1.6767  1.0186  0.0787
12783SOL     OW39789   6.160   5.530   9.826  0.0545  0.0172  0.2005
12783SOL    HW139790   6.233   5.522   9.887 -0.0166 -0.0462  0.2782
12783SOL    HW239791   6.139   5.440   9.802  1.3727  0.0977 -1.4610
12784SOL     OW39792   5.235   5.160   0.526  0.4435  0.2830 -0.3967
12784SOL    HW139793   5.160   5.193   0.576  0.5240  0.8728 -0.6552
12784SOL    HW239794   5.309   5.167   0.586  1.1174  3.6472 -1.3925
12785SOL     OW39795   2.355   2.339   3.854  0.5545 -0.2655  0.0553
12785SOL    HW139796   2.416   2.407   3.825  0.0845  0.0927 -0.1103
12785SOL    HW239797   2.341   2.358   3.947  0.1243  0.0974 -0.0836
12786SOL     OW39798   7.318   0.359   7.295 -0.1863  0.2973 -0.2526
12786SOL    HW139799   7.249   0.336   7.233 -1.8612 -0.0198  1.6516
12786SOL    HW239800   7.341   0.450   7.273 -2.2611  0.9147 -0.0210
12787SOL     OW39801   1.467   5.374   2.313 -0.3234 -0.0990 -0.0669
12787SOL    HW139802   1.398   5.437   2.331  1.5084  1.5685  1.6613
12787SOL    HW239803   1.462   5.312   2.385  0.3469  0.3836  0.4019
12788SOL     OW39804   6.168   4.285  10.759  0.4010  0.0243 -0.4583
12788SOL    HW139805   6.253   4.324  10.781  1.6809 -2.3561 -0.8497
12788SOL    HW239806   6.165   4.204  10.810 -0.4587 -1.2333 -2.4017
12789SOL     OW39807   6.634   0.205  10.146  0.1356  0.2241  0.5128
12789SOL    HW139808   6.728   0.199  10.161  0.4344  0.2372 -1.1233
12789SOL    HW239809   6.626   0.227  10.053 -1.4617  1.6024  0.9219
12790SOL     OW39810   5.718   0.080   0.080 -0.8140 -0.2876 -0.0565
12790SOL    HW139811   5.805   0.100   0.047 -0.6982  0.1646  0.4967
12790SOL    HW239812   5.698   0.152   0.140 -1.5459 -0.4116 -0.1361
12791SOL     OW39813   4.912   7.569   6.472 -0.0411 -0.1507 -0.2577
12791SOL    HW139814   4.931   7.475   6.479  0.3320  0.0138  1.0585
12791SOL    HW239815   4.953   7.608   6.548 -2.7470  0.6785  0.9123
12792SOL     OW39816   2.684   5.974   5.118  0.0099 -0.0158  0.2400
12792SOL    HW139817   2.605   5.920   5.123  0.8840 -1.2359  1.7428
12792SOL    HW239818   2.755   5.911   5.107  1.0563  0.7883  1.9924
12793SOL     OW39819   0.366   5.580   4.873  0.4070 -0.2210 -0.1881
12793SOL    HW139820   0.366   5.611   4.783 -1.9589 -0.5576 -0.3620
12793SOL    HW239821   0.458   5.564   4.893  1.1334  1.3176 -2.0071
12794SOL     OW39822   6.977   3.616   7.643 -0.6785 -0.0453  1.3630
12794SOL    HW139823   6.983   3.548   7.576 -3.0953 -0.4953  1.5072
12794SOL    HW239824   6.908   3.675   7.612 -2.4483 -0.7030  3.7216
12795SOL     OW39825   3.371   0.976   8.860  0.0838  0.5467 -0.4553
12795SOL    HW139826   3.444   0.969   8.798 -0.8780 -0.9121 -1.4912
12795SOL    HW239827   3.370   0.892   8.905 -1.6442  0.0739 -1.2940
12796SOL     OW39828   0.430   4.011  10.636  0.4209 -0.3903 -0.2213
12796SOL    HW139829   0.472   4.085  10.593  0.1316 -1.2480 -2.0809
12796SOL    HW239830   0.449   4.023  10.729  0.5334  1.8986 -0.4867
12797SOL     OW39831   3.579   4.063   8.226 -0.3723 -0.2880 -0.3010
12797SOL    HW139832   3.581   4.048   8.320  0.8463 -1.5578 -0.4903
12797SOL    HW239833   3.488   4.082   8.206 -0.7578 -0.6443  1.0460
12798SOL     OW39834   1.212   3.281   2.779 -0.6659  0.7468 -0.6343
12798SOL    HW139835   1.294   3.233   2.775 -1.2224 -0.2959  0.0786
12798SOL    HW239836   1.159   3.245   2.709 -0.4793  1.5093 -1.1768
12799SOL     OW39837   6.759   0.165   4.427 -0.3964 -0.1378  0.2408
12799SOL    HW139838   6.721   0.130   4.347 -0.8983 -0.5672  0.6583
12799SOL    HW239839   6.802   0.246   4.400 -0.3698 -0.3933 -0.4950
12800SOL     OW39840   7.422   1.887   8.222  0.4233 -0.0746 -0.5802
12800SOL    HW139841   7.327   1.894   8.235  0.3474 -0.6644 -0.7843
12800SOL    HW239842   7.449   1.976   8.198  0.0563  0.2816  0.2714
12801SOL     OW39843   1.007   3.347   2.276  1.3689 -0.1324 -0.3679
12801SOL    HW139844   1.000   3.272   2.218  2.9861 -0.6929  0.1329
12801SOL    HW239845   0.992   3.311   2.364  1.1009  0.3326 -0.2151
12802SOL     OW39846   6.117   7.377   4.540  0.1160  0.0015 -0.2659
12802SOL    HW139847   6.108   7.379   4.635 -0.7110  0.7838 -0.3517
12802SOL    HW239848   6.050   7.437   4.508  0.9696  0.4169 -1.3069
12803SOL     OW39849   5.723   3.902  11.434  0.0279 -0.5555 -0.4965
12803SOL    HW139850   5.721   3.938  11.346 -1.2951  1.7416  0.3903
12803SOL    HW239851   5.796   3.840  11.433  1.4280  0.9872 -2.5994
12804SOL     OW39852   3.754   2.222   8.717  0.4597  0.0551 -0.5547
12804SOL    HW139853   3.706   2.150   8.678  1.4992 -0.4845 -0.8962
12804SOL    HW239854   3.740   2.212   8.811 -0.4404  0.1781 -0.6700
12805SOL     OW39855   4.136   7.575   8.086 -0.0761 -0.1096  0.2991
12805SOL    HW139856   4.048   7.600   8.059 -0.0461 -0.1075  0.2047
12805SOL    HW239857   4.128   7.485   8.116 -0.3769  0.3050  1.5255
12806SOL     OW39858   3.211   7.865   0.345 -0.5882  0.4859 -0.1704
12806SOL    HW139859   3.122   7.857   0.380 -0.4691  1.3714  0.3734
12806SOL    HW239860   3.230   7.959   0.350  0.6930  0.2042  0.4981
12807SOL     OW39861   2.741   1.818   6.265  0.8257 -0.2469  0.1764
12807SOL    HW139862   2.655   1.816   6.223  0.9044 -0.5638  0.0331
12807SOL    HW239863   2.728   1.875   6.341  0.5529 -0.0916  0.0174
12808SOL     OW39864   1.554   5.357   9.342  0.4555 -0.0937  0.3618
12808SOL    HW139865   1.511   5.288   9.291  1.3196 -0.5757  0.2657
12808SOL    HW239866   1.645   5.330   9.346  0.9915  1.4766 -0.4297
12809SOL     OW39867   5.099   3.409  10.163 -0.0363 -0.4167  0.6216
12809SOL    HW139868   5.191   3.419  10.141 -0.5649 -0.5794 -1.9814
12809SOL    HW239869   5.073   3.327  10.122 -1.4368 -0.2038  1.0202
12810SOL     OW39870   0.618   6.776   9.299 -0.3726  0.0546  0.5137
12810SOL    HW139871   0.618   6.872   9.302 -1.3706  0.0459  2.6392
12810SOL    HW239872   0.664   6.750   9.379  1.7148 -1.3081 -1.0255
12811SOL     OW39873   7.181   6.268   2.532  0.0338  0.0815  1.1803
12811SOL    HW139874   7.258   6.220   2.503  1.1349  2.1395  0.5278
12811SOL    HW239875   7.154   6.319   2.456 -0.7586  0.9375  1.9975
12812SOL     OW39876   2.232   3.794   1.897  0.1980 -0.5699  0.4949
12812SOL    HW139877   2.297   3.772   1.964 -1.4273 -0.1395  2.2779
12812SOL    HW239878   2.206   3.709   1.860 -1.0417 -1.1210  2.5239
12813SOL     OW39879   0.444   5.953   4.137 -0.4540 -0.4244 -0.1866
12813SOL    HW139880   0.433   5.899   4.059  2.0572 -1.1278 -0.1232
12813SOL    HW239881   0.391   5.909   4.204 -1.2034 -0.8180 -1.0151
12814SOL     OW39882   0.420   7.939   2.523  0.9190  0.0742  0.2253
12814SOL    HW139883   0.459   7.929   2.610  1.1683  0.2293  0.1339
12814SOL    HW239884   0.478   7.889   2.465  0.6766 -0.1437  0.1678
12815SOL     OW39885   3.297   5.675   3.231 -0.4757  0.8636 -0.2104
12815SOL    HW139886   3.221   5.703   3.180 -1.6076 -0.4371  0.6852
12815SOL    HW239887   3.298   5.733   3.307 -3.2754 -1.7036  2.0464
12816SOL     OW39888   0.820   1.665   9.799 -0.0192  0.1040 -0.4311
12816SOL    HW139889   0.846   1.610   9.725  0.5961  1.9340 -1.6339
12816SOL    HW239890   0.897   1.666   9.856 -0.2095 -0.6505 -0.1455
12817SOL     OW39891   3.171   7.724   8.923 -0.3287 -0.4576 -0.8433
12817SOL    HW139892   3.213   7.804   8.891  0.9959 -0.6282  0.4209
12817SOL    HW239893   3.106   7.704   8.855  0.9793  0.3194 -2.4185
12818SOL     OW39894   2.610   0.349   6.526 -0.3401  0.6959 -0.3899
12818SOL    HW139895   2.525   0.351   6.483 -0.5266  0.0613 -0.0636
12818SOL    HW239896   2.592   0.315   6.614 -0.0051  2.1954  0.2977
12819SOL     OW39897   6.664   4.039   0.038 -0.7314 -0.4836 -0.0264
12819SOL    HW139898   6.644   3.952   0.005 -0.2144 -0.5490 -0.1896
12819SOL    HW239899   6.757   4.051   0.018 -0.4113 -0.5012  1.3941
12820SOL     OW39900   3.361   1.119   6.219  0.0428 -0.2213 -0.2324
12820SOL    HW139901   3.275   1.077   6.206 -0.2196  0.2652 -0.0655
12820SOL    HW239902   3.415   1.083   6.148 -1.0739  1.5701 -2.0910
12821SOL     OW39903   4.455   4.465   3.925 -0.3440  0.0661  0.0564
12821SOL    HW139904   4.402   4.502   3.854  1.1103  1.6953 -0.2468
12821SOL    HW239905   4.513   4.402   3.881 -1.9306 -1.7042  0.3859
12822SOL     OW39906   4.391   7.499   9.385 -0.1402  0.0218  0.0545
12822SOL    HW139907   4.446   7.542   9.450 -0.0538 -0.6825  0.4606
12822SOL    HW239908   4.427   7.526   9.301 -0.1079  0.7568  0.3001
12823SOL     OW39909   6.226   5.968   4.455  0.1534  0.0810 -0.0423
12823SOL    HW139910   6.300   5.916   4.486 -0.8474 -1.3932 -0.0214
12823SOL    HW239911   6.149   5.917   4.479 -0.8868  1.5991 -0.0225
12824SOL     OW39912   3.567   2.144   9.530  0.2060  0.0567 -0.1172
12824SOL    HW139913   3.633   2.214   9.530  0.2611  0.0052 -0.9712
12824SOL    HW239914   3.483   2.190   9.521  0.1685  0.0722  0.2761
12825SOL     OW39915   7.859   2.942   1.059  0.5834 -0.2390  0.1394
12825SOL    HW139916   7.927   2.890   1.103  1.5611  0.1517 -0.8715
12825SOL    HW239917   7.841   3.014   1.119 -0.4461 -1.4554  1.3454
12826SOL     OW39918   4.404   5.818  12.029  0.4246 -0.5132  0.2483
12826SOL    HW139919   4.466   5.750  12.001 -0.4449 -0.1599 -2.8708
12826SOL    HW239920   4.323   5.771  12.049  0.4296 -0.5771  0.1172
12827SOL     OW39921   4.104   4.874   8.808  0.4885 -0.3908  0.3261
12827SOL    HW139922   4.096   4.927   8.729 -1.5125  0.3208  0.9382
12827SOL    HW239923   4.129   4.788   8.777  2.3595  0.4907 -0.8219
12828SOL     OW39924   1.283   5.522   0.115  0.2687  0.0751  0.4408
12828SOL    HW139925   1.228   5.585   0.068 -1.2720 -1.8491 -0.5362
12828SOL    HW239926   1.314   5.569   0.192 -0.5737  2.0720 -0.3641
12829SOL     OW39927   4.617   2.730   5.636 -0.3161  0.7225  0.2165
12829SOL    HW139928   4.706   2.741   5.669  0.1917 -1.0208 -0.4091
12829SOL    HW239929   4.560   2.767   5.703  0.8598  1.4852  0.8140
12830SOL     OW39930   4.970   1.834  11.545  0.0872  0.2356  0.0974
12830SOL    HW139931   5.057   1.873  11.551 -0.2039  0.9822 -0.4576
12830SOL    HW239932   4.911   1.909  11.537 -0.5788 -0.2804  0.1232
12831SOL     OW39933   2.434   1.283   6.871 -0.5392  0.2817  0.8080
12831SOL    HW139934   2.524   1.255   6.889 -1.2308 -0.6855  3.1194
12831SOL    HW239935   2.443   1.348   6.801  1.6978 -1.5945 -0.8322
12832SOL     OW39936   7.012   3.704   1.142 -0.3706 -0.3357 -0.2234
12832SOL    HW139937   7.024   3.787   1.096 -0.6068  0.1082  0.4867
12832SOL    HW239938   7.010   3.638   1.073 -2.1041  0.4399 -0.9770
12833SOL     OW39939   0.700   0.221   1.918  0.2246  0.0522 -0.5026
12833SOL    HW139940   0.669   0.162   1.849  2.5912 -0.5747 -1.1373
12833SOL    HW239941   0.622   0.265   1.950 -1.3095 -1.7280 -1.6406
12834SOL     OW39942   5.086   7.142  11.717 -0.4341 -0.0664 -0.4955
12834SOL    HW139943   5.067   7.224  11.672 -0.4012  1.3661  1.8786
12834SOL    HW239944   5.007   7.089  11.705 -2.2936  2.0409  1.3759
12835SOL     OW39945   0.782   1.709  11.734 -0.3695 -0.0081 -0.3779
12835SOL    HW139946   0.717   1.759  11.783 -0.7831  0.0488 -0.9673
12835SOL    HW239947   0.864   1.724  11.780 -1.0608 -1.6141  1.5334
12836SOL     OW39948   2.948   0.022  12.262  0.5063  0.3102  0.4752
12836SOL    HW139949   3.015   0.045  12.327  0.0060 -1.7843  1.8533
12836SOL    HW239950   2.892  -0.041  12.307 -1.1147  0.3352 -1.3628
12837SOL     OW39951   5.879   3.184   5.010  0.1261 -0.0222  0.0200
12837SOL    HW139952   5.922   3.182   5.095  0.1714  2.4886  0.1107
12837SOL    HW239953   5.935   3.130   4.954 -0.4010 -2.5225  1.7002
12838SOL     OW39954   3.805   6.880   7.768  0.1479  0.0537  0.6658
12838SOL    HW139955   3.887   6.833   7.753  0.0865  0.1709 -0.1146
12838SOL    HW239956   3.832   6.965   7.802  0.4256  0.4675 -0.5251
12839SOL     OW39957   6.559   0.976   9.778  0.1064  0.3749  0.3940
12839SOL    HW139958   6.622   0.908   9.758  1.5411  1.8301 -0.2109
12839SOL    HW239959   6.509   0.941   9.852  1.1443 -1.0847  0.4430
12840SOL     OW39960   1.251   0.597   7.513 -0.0734  0.7114 -0.2296
12840SOL    HW139961   1.264   0.511   7.473  1.3143  1.1310 -0.7335
12840SOL    HW239962   1.258   0.659   7.441 -1.8732  1.2479 -0.0182
12841SOL     OW39963   2.181   7.902   8.301 -0.4516  0.5116 -0.0078
12841SOL    HW139964   2.208   7.826   8.352 -0.3547 -0.5056 -1.4975
12841SOL    HW239965   2.098   7.930   8.341 -0.7021 -0.6401  0.3018
12842SOL     OW39966   6.930   2.069   1.100 -0.8003  0.1962 -0.3376
12842SOL    HW139967   7.007   2.018   1.127 -0.3045  0.3313 -1.4243
12842SOL    HW239968   6.878   2.079   1.180 -1.0600 -2.2477 -0.1196
12843SOL     OW39969   3.753   3.639  12.219 -0.0989  0.4522  0.3737
12843SOL    HW139970   3.716   3.637  12.307  0.8290 -2.0232  0.7913
12843SOL    HW239971   3.847   3.644  12.233  0.0739 -0.2337 -0.4473
12844SOL     OW39972   3.650   3.641   1.131 -0.0604  0.6445 -0.1592
12844SOL    HW139973   3.621   3.731   1.142 -1.9788 -0.0024  0.5618
12844SOL    HW239974   3.569   3.589   1.133  0.9408 -1.0426 -1.1167
12845SOL     OW39975   6.931   7.342   1.062 -0.0159  0.0376  0.2069
12845SOL    HW139976   6.876   7.390   0.999  0.3710  0.6735  0.3489
12845SOL    HW239977   6.879   7.265   1.084 -1.0037  0.7676  0.5614
12846SOL     OW39978   7.717   6.421   2.836 -0.0853 -0.3550  0.0258
12846SOL    HW139979   7.789   6.377   2.792 -1.1908  0.3021 -2.6592
12846SOL    HW239980   7.752   6.507   2.858  0.1074 -0.1654 -0.9499
12847SOL     OW39981   1.643   5.642   4.110  0.4574  0.6699  0.4569
12847SOL    HW139982   1.657   5.729   4.145 -0.1203  0.7861  0.3930
12847SOL    HW239983   1.573   5.652   4.046  1.6487  0.5171 -0.9362
12848SOL     OW39984   5.157   7.246   6.829 -0.0518  0.0165 -0.5033
12848SOL    HW139985   5.076   7.292   6.809  1.0455  1.6441 -1.4461
12848SOL    HW239986   5.226   7.307   6.805  1.4792 -1.4476 -0.0503
12849SOL     OW39987   5.518   3.148   4.690  0.1077  0.1460 -0.1222
12849SOL    HW139988   5.586   3.175   4.629  0.7201  0.2797  0.6164
12849SOL    HW239989   5.563   3.135   4.773 -0.3886 -1.7864 -0.0970
12850SOL     OW39990   5.093   2.072   4.755  0.3256 -0.0170  0.1817
12850SOL    HW139991   5.003   2.051   4.733 -0.5777  0.4176  3.0282
12850SOL    HW239992   5.143   1.993   4.732 -0.8021 -0.3966 -1.0698
12851SOL     OW39993   5.063   1.935   0.703 -0.2169  0.1854 -0.3023
12851SOL    HW139994   5.054   1.935   0.798  1.0137  0.4071 -0.1632
12851SOL    HW239995   4.991   1.990   0.672 -0.6603  0.0658  0.4961
12852SOL     OW39996   2.562   7.348   8.128 -0.3862 -0.1387 -0.4489
12852SOL    HW139997   2.615   7.425   8.148  0.4599 -0.7922 -0.0821
12852SOL    HW239998   2.620   7.293   8.074  0.0735 -1.7348  1.5092
12853SOL     OW39999   5.548   1.758   8.151  0.1501  0.0654  0.1344
12853SOL    HW140000   5.583   1.791   8.068  2.4807 -0.8486  0.6822
12853SOL    HW240001   5.619   1.770   8.214 -0.7260 -1.3634  1.4754
12854SOL     OW40002   2.703   7.262   2.247 -0.1705  0.0823 -0.0358
12854SOL    HW140003   2.653   7.206   2.188 -0.0083 -0.2961  0.1746
12854SOL    HW240004   2.757   7.317   2.190  0.7907 -1.0271 -0.2305
12855SOL     OW40005   6.811   4.231   9.719 -0.5395 -0.1704 -0.0081
12855SOL    HW140006   6.741   4.223   9.655 -0.5864  1.3787 -0.1980
12855SOL    HW240007   6.890   4.206   9.672 -0.3990  2.0422 -1.1021
12856SOL     OW40008   5.293   5.742   7.126 -0.1521 -0.2291 -0.4901
12856SOL    HW140009   5.350   5.675   7.088  0.1996 -0.3784  0.2844
12856SOL    HW240010   5.352   5.809   7.160 -0.3170 -1.0982  1.6686
12857SOL     OW40011   0.812   1.798   4.650 -0.1260 -0.1079  0.9743
12857SOL    HW140012   0.729   1.839   4.627 -0.1687 -1.1313 -0.8946
12857SOL    HW240013   0.871   1.824   4.579  0.4873 -1.3154  1.0271
12858SOL     OW40014   5.134   0.144  12.432  1.0109 -0.5657 -0.2462
12858SOL    HW140015   5.208   0.172  12.486  1.7567  1.1052 -1.9982
12858SOL    HW240016   5.058   0.150  12.490  1.7151  1.5321  0.5661
12859SOL     OW40017   2.993   4.948   5.972 -0.0735 -0.3837 -0.3115
12859SOL    HW140018   3.023   4.864   5.939  1.2227 -0.2211  0.3652
12859SOL    HW240019   3.073   4.995   5.995 -0.7147  1.3307 -1.3252
12860SOL     OW40020   5.393   0.745   5.241 -0.4254 -0.3395  0.1233
12860SOL    HW140021   5.366   0.657   5.214  0.9900 -0.6029 -0.5256
12860SOL    HW240022   5.314   0.797   5.235 -1.1354 -1.4200 -0.1766
12861SOL     OW40023   4.945   0.942   7.997  0.1794 -0.9735 -0.0121
12861SOL    HW140024   4.850   0.947   8.006  0.2244 -1.5174  0.8324
12861SOL    HW240025   4.970   0.861   8.042  1.1046 -0.5404  0.2905
12862SOL     OW40026   0.516   2.659   9.982  0.2337 -0.0700 -0.0472
12862SOL    HW140027   0.611   2.672   9.981  0.2113  0.1816 -1.8450
12862SOL    HW240028   0.501   2.606  10.061  1.8621 -0.1634  0.2505
12863SOL     OW40029   0.260   7.797   9.480  0.3346 -0.1582  0.2317
12863SOL    HW140030   0.287   7.875   9.527 -0.4537 -0.2529  0.8625
12863SOL    HW240031   0.316   7.794   9.403 -0.7562  1.9634 -0.7180
12864SOL     OW40032   1.687   7.337   8.893 -0.3215 -0.0473  0.2387
12864SOL    HW140033   1.669   7.423   8.855  1.9235  0.6044  0.5090
12864SOL    HW240034   1.751   7.354   8.962  1.0826 -2.0315 -0.4882
12865SOL     OW40035   3.690   2.659   7.676  0.4395  0.2809 -0.0937
12865SOL    HW140036   3.667   2.702   7.758  0.2397 -0.6280  0.3414
12865SOL    HW240037   3.606   2.641   7.633  0.4629 -0.4645  0.1536
12866SOL     OW40038   7.245   6.660  11.253  0.1490 -0.4855 -0.5075
12866SOL    HW140039   7.331   6.701  11.263 -0.2589  0.0285  1.5017
12866SOL    HW240040   7.191   6.704  11.319 -1.9459 -0.0925 -2.3680
12867SOL     OW40041   1.878   6.836  10.143 -0.1498  0.1616 -0.2092
12867SOL    HW140042   1.927   6.862  10.066 -1.0526  3.4925  0.1948
12867SOL    HW240043   1.786   6.843  10.117 -0.4766 -1.5011  0.3672
12868SOL     OW40044   6.274   4.566   9.062  0.1104 -0.0344  0.5227
12868SOL    HW140045   6.190   4.520   9.056  0.6684 -0.9907 -0.1418
12868SOL    HW240046   6.339   4.500   9.040  1.0155  0.7977  0.6635
12869SOL     OW40047   1.182   4.332   9.079  0.1771 -0.2818 -0.0368
12869SOL    HW140048   1.209   4.248   9.117 -1.6725 -0.7860  0.2572
12869SOL    HW240049   1.087   4.325   9.071 -0.0779  1.9814  0.4604
12870SOL     OW40050   7.631   5.406   1.402 -0.3528  0.2182  0.1367
12870SOL    HW140051   7.702   5.437   1.459 -0.7812  0.4046  0.5767
12870SOL    HW240052   7.551   5.435   1.445 -0.7210 -0.4228 -0.0922
12871SOL     OW40053   6.975   0.213   2.585 -0.2929 -0.0350  0.2803
12871SOL    HW140054   6.954   0.306   2.594 -0.6600  0.2192 -2.3286
12871SOL    HW240055   6.891   0.170   2.570 -0.0217 -0.6600  0.4891
12872SOL     OW40056   0.434   4.675   6.429 -0.7885 -0.5080 -0.6775
12872SOL    HW140057   0.489   4.712   6.498 -1.0822 -0.7189 -0.3274
12872SOL    HW240058   0.427   4.582   6.451  1.1639 -1.1374 -2.3495
12873SOL     OW40059   2.353   6.197   8.877  0.6947  0.3370 -0.2321
12873SOL    HW140060   2.347   6.276   8.824  0.0008  1.0160  0.8093
12873SOL    HW240061   2.430   6.210   8.932  0.6090  0.2650 -0.0942
12874SOL     OW40062   0.453   5.174   5.238 -0.0300 -0.6572 -0.1149
12874SOL    HW140063   0.510   5.250   5.249 -1.1942  0.0963  0.9809
12874SOL    HW240064   0.483   5.133   5.157  1.3132  0.3586 -0.1615
12875SOL     OW40065   0.255   6.594   1.335 -0.0261 -0.3993  0.4970
12875SOL    HW140066   0.290   6.595   1.424 -0.2482  1.0379  0.5984
12875SOL    HW240067   0.322   6.639   1.282 -0.0291 -0.9802 -0.0124
12876SOL     OW40068   0.818   1.200   7.870  0.1674  0.4659  0.4724
12876SOL    HW140069   0.756   1.199   7.943 -1.1685 -0.0949 -0.6306
12876SOL    HW240070   0.902   1.177   7.910 -0.2290  1.6215  2.0651
12877SOL     OW40071   3.415   1.539   2.582 -0.5529  0.7802 -0.1053
12877SOL    HW140072   3.351   1.533   2.511  0.3537 -0.3435 -0.8531
12877SOL    HW240073   3.435   1.633   2.587 -0.1647  0.8105 -1.7675
12878SOL     OW40074   3.629   6.863   1.761 -0.1683 -0.5321 -0.3843
12878SOL    HW140075   3.591   6.833   1.843 -1.3224 -1.4032 -1.1942
12878SOL    HW240076   3.698   6.799   1.741 -0.3893 -0.7464 -0.4622
12879SOL     OW40077   0.293   3.908   9.998  0.1288  0.0817 -0.0381
12879SOL    HW140078   0.220   3.897   9.936  0.7617  3.3583 -1.5844
12879SOL    HW240079   0.360   3.847   9.968  0.1505  1.1126 -2.2799
12880SOL     OW40080   7.250   3.643   7.176 -0.5528 -0.2256  0.5219
12880SOL    HW140081   7.195   3.715   7.205 -1.2605  0.1385 -1.5318
12880SOL    HW240082   7.321   3.685   7.127  0.0811 -0.8361  0.8952
12881SOL     OW40083   3.939   7.391   8.785  0.6834 -0.7143 -0.4815
12881SOL    HW140084   3.960   7.299   8.795  1.3855 -0.5110  0.0749
12881SOL    HW240085   4.024   7.433   8.768  0.4050 -0.1551 -0.5043
12882SOL     OW40086   3.996   0.692  10.271 -0.6492  0.1838 -0.0815
12882SOL    HW140087   3.951   0.617  10.233 -1.9699  0.6979  0.3905
12882SOL    HW240088   4.013   0.667  10.362  3.0798 -1.2984 -0.9945
12883SOL     OW40089   2.594   1.417   9.002 -0.0521 -0.8738 -0.3740
12883SOL    HW140090   2.597   1.401   8.907  0.5049 -1.4724 -0.2639
12883SOL    HW240091   2.584   1.330   9.040 -2.5087 -0.4570  0.0464
12884SOL     OW40092   0.657   6.619   2.186  0.0847  0.1642  0.7537
12884SOL    HW140093   0.594   6.649   2.251 -1.7526  2.1256 -1.6881
12884SOL    HW240094   0.665   6.525   2.201 -2.6707  0.0178  1.8460
12885SOL     OW40095   2.987   2.511   3.294 -0.1954 -0.8408  0.1432
12885SOL    HW140096   3.065   2.475   3.252  0.6166 -0.4941  1.3049
12885SOL    HW240097   2.990   2.477   3.383 -1.0425 -0.3221  0.3781
12886SOL     OW40098   4.851   5.940   4.654 -0.4759  0.0612 -0.3558
12886SOL    HW140099   4.808   6.018   4.617  0.2062  0.4097 -0.4334
12886SOL    HW240100   4.907   5.975   4.723  0.8717 -0.2013 -1.2884
12887SOL     OW40101   7.491   5.057   0.246 -0.0093 -0.0558  0.3038
12887SOL    HW140102   7.534   5.140   0.224 -1.2784  0.6610  0.3866
12887SOL    HW240103   7.562   4.993   0.250  1.2070  1.3082  1.7670
12888SOL     OW40104   0.823   3.220   9.970 -0.2236  0.1205 -0.0210
12888SOL    HW140105   0.887   3.164  10.014 -1.1687 -0.3369  0.8274
12888SOL    HW240106   0.868   3.250   9.891  1.7421  1.3744  1.4699
12889SOL     OW40107   7.430   7.307  10.549 -0.1627  0.4546  0.3595
12889SOL    HW140108   7.377   7.303  10.469  1.1752 -0.3653 -0.5287
12889SOL    HW240109   7.426   7.219  10.585 -2.0477  1.1899  2.1256
12890SOL     OW40110   6.121   5.836  10.534 -0.6424  0.5215 -0.1445
12890SOL    HW140111   6.199   5.782  10.544  0.0585  1.5705  0.2313
12890SOL    HW240112   6.154   5.925  10.531 -1.7797  0.9437 -0.6811
12891SOL     OW40113   2.647   4.883   7.359  0.0120  0.0896 -0.9645
12891SOL    HW140114   2.650   4.796   7.318  1.3261 -0.6845  0.6511
12891SOL    HW240115   2.656   4.866   7.453  1.8812  2.0284 -0.7083
12892SOL     OW40116   1.083   4.383   2.804  0.0383  0.0803  0.3358
12892SOL    HW140117   1.170   4.415   2.781  0.0088 -0.2114 -0.1973
12892SOL    HW240118   1.099   4.299   2.846  0.2393  1.4735  3.2689
12893SOL     OW40119   3.332   7.318   0.703 -0.7050 -0.3933  0.1181
12893SOL    HW140120   3.422   7.297   0.728 -0.0154  2.8286  0.7759
12893SOL    HW240121   3.337   7.332   0.608 -0.4444 -0.0186  0.1836
12894SOL     OW40122   0.967   5.252   9.304 -0.0343 -0.2465 -0.5593
12894SOL    HW140123   0.882   5.208   9.314 -0.0948  0.0388  0.2051
12894SOL    HW240124   1.028   5.181   9.285  0.0957 -0.8881  1.8985
12895SOL     OW40125   2.582   6.692   0.336 -0.1203 -0.1624 -0.5515
12895SOL    HW140126   2.544   6.633   0.401 -1.2116 -0.0121 -1.0316
12895SOL    HW240127   2.605   6.770   0.386 -0.5235 -0.2277 -0.2542
12896SOL     OW40128   6.777   0.406   3.371  0.2029 -0.2675  0.6454
12896SOL    HW140129   6.682   0.391   3.365  0.2628 -0.9113  1.2487
12896SOL    HW240130   6.814   0.346   3.306  0.0911  1.5780 -1.2598
12897SOL     OW40131   7.112   3.707   2.969  0.3545 -0.2041 -0.0724
12897SOL    HW140132   7.105   3.741   2.880 -0.0179  1.1730  0.4646
12897SOL    HW240133   7.200   3.732   2.998  0.7486 -1.2878 -0.2985
12898SOL     OW40134   3.677   1.313   0.678  0.5076 -0.1363  0.1614
12898SOL    HW140135   3.688   1.226   0.641 -0.8100 -0.0441 -0.4846
12898SOL    HW240136   3.699   1.373   0.607  1.5225  0.0792  0.6360
12899SOL     OW40137   0.210   6.263   6.226  0.3297  0.4377 -0.1874
12899SOL    HW140138   0.281   6.207   6.257  0.1101  2.0027  3.7673
12899SOL    HW240139   0.255   6.340   6.191  0.5934 -0.0540 -0.9412
12900SOL     OW40140   7.086   1.012   8.691 -0.3343 -0.1015  1.1322
12900SOL    HW140141   7.019   1.041   8.753 -1.1812 -0.2761  0.3318
12900SOL    HW240142   7.042   0.945   8.638  0.4370 -0.1324  0.5137
12901SOL     OW40143   2.322   4.914   7.370 -0.3208 -0.6480 -0.0982
12901SOL    HW140144   2.342   4.833   7.323 -2.2373 -1.9400  1.2047
12901SOL    HW240145   2.360   4.902   7.457  1.1861  0.7622 -0.5145
12902SOL     OW40146   7.543   7.449   1.424  0.1586 -0.2468 -0.0951
12902SOL    HW140147   7.533   7.541   1.450  1.3586 -0.2383  0.4204
12902SOL    HW240148   7.587   7.453   1.339  0.4391 -0.3362  0.0435
12903SOL     OW40149   6.836   1.106   8.792  0.6259 -0.4405  0.1840
12903SOL    HW140150   6.847   1.163   8.716 -1.6019  0.5863  0.5563
12903SOL    HW240151   6.853   1.162   8.867  0.3752 -0.7908  0.5071
12904SOL     OW40152   4.275   1.864   9.842  0.3323  0.4964 -0.4666
12904SOL    HW140153   4.252   1.799   9.908  1.3009 -0.6000 -1.1735
12904SOL    HW240154   4.237   1.946   9.874  2.0760  0.3579  2.2480
12905SOL     OW40155   3.945   2.201   3.485  0.0454 -0.5708 -0.8865
12905SOL    HW140156   3.970   2.279   3.434  0.3306 -0.6671 -0.8935
12905SOL    HW240157   3.886   2.235   3.553 -0.1609 -0.4092 -1.1427
12906SOL     OW40158   4.427   6.790   5.299 -0.6968  0.0548 -0.3230
12906SOL    HW140159   4.517   6.822   5.287 -1.2679  1.1355 -2.2000
12906SOL    HW240160   4.391   6.847   5.367 -0.3276  0.4259 -0.4283
12907SOL     OW40161   5.201   1.540  12.203 -0.5821 -0.5942 -0.5601
12907SOL    HW140162   5.112   1.552  12.169 -1.4353  0.1794  1.7692
12907SOL    HW240163   5.214   1.613  12.263  1.4745 -0.9677 -0.4825
12908SOL     OW40164   2.089   3.976   5.511  0.5808 -0.1575  0.0553
12908SOL    HW140165   2.125   4.008   5.428  0.9034 -0.2749  0.1481
12908SOL    HW240166   2.122   3.887   5.518 -0.2034 -0.4722 -0.1367
12909SOL     OW40167   3.198   0.832   2.765  0.8691  0.1864  0.0805
12909SOL    HW140168   3.139   0.776   2.815 -1.2213  1.1116 -1.1894
12909SOL    HW240169   3.190   0.918   2.806 -0.0027  0.6950 -1.0811
12910SOL     OW40170   2.916   4.582   4.594 -0.1557 -0.8327  0.0437
12910SOL    HW140171   2.959   4.566   4.510  0.3760 -0.0462  0.1626
12910SOL    HW240172   2.934   4.503   4.645 -1.1627 -1.6721 -0.8402
12911SOL     OW40173   1.556   3.022   0.057  0.3510  0.2666 -0.0645
12911SOL    HW140174   1.530   3.023   0.149 -0.1229 -0.7203 -0.1743
12911SOL    HW240175   1.628   2.959   0.053  0.6344  0.6047 -0.3013
12912SOL     OW40176   5.570   3.547   2.140  0.2859 -0.2414  0.2299
12912SOL    HW140177   5.551   3.641   2.149 -2.2206 -0.5395 -0.9357
12912SOL    HW240178   5.603   3.538   2.051  0.1037 -0.4975  0.1865
12913SOL     OW40179   3.957   3.010   2.250 -0.3045  0.2601 -0.1875
12913SOL    HW140180   3.891   2.943   2.268 -0.9795  1.6316  3.0264
12913SOL    HW240181   4.035   2.960   2.226 -1.5144 -1.5443 -0.6172
12914SOL     OW40182   6.440   2.504   9.404  0.2277  0.3929  0.2058
12914SOL    HW140183   6.346   2.486   9.405  0.4756 -0.9137  1.2937
12914SOL    HW240184   6.477   2.434   9.351  0.4909  1.6366 -1.3472
12915SOL     OW40185   1.188   7.268   8.785 -0.3558 -0.6779  0.4133
12915SOL    HW140186   1.140   7.244   8.706 -0.3700 -0.2498  0.2900
12915SOL    HW240187   1.259   7.323   8.754 -2.0525  1.9908  0.9455
12916SOL     OW40188   7.937   3.083   9.804 -0.1906  0.6110 -0.4431
12916SOL    HW140189   7.893   3.110   9.724 -1.8593  1.0581  0.5956
12916SOL    HW240190   7.970   3.164   9.843 -0.9927  0.6154  0.2426
12917SOL     OW40191   4.770   0.529   8.023  0.0823 -0.2014  0.6198
12917SOL    HW140192   4.708   0.554   8.092 -1.6362 -1.0053 -0.5702
12917SOL    HW240193   4.719   0.473   7.964  1.0807  1.5108 -2.0354
12918SOL     OW40194   0.715   2.597   9.516  0.1188 -0.3787 -0.0429
12918SOL    HW140195   0.675   2.620   9.432  0.7813  1.4665  0.1174
12918SOL    HW240196   0.654   2.630   9.582  1.5133  1.9293  0.1972
12919SOL     OW40197   1.043   0.771   9.645 -0.7146  0.2245 -0.1117
12919SOL    HW140198   0.994   0.814   9.715 -1.2017  1.5135 -1.1870
12919SOL    HW240199   1.041   0.834   9.573  1.7462 -0.0674 -0.5251
12920SOL     OW40200   2.110   4.518   9.402 -0.4383 -0.1327 -0.2071
12920SOL    HW140201   2.095   4.442   9.345  1.2162 -0.1917 -0.6114
12920SOL    HW240202   2.177   4.568   9.356 -0.8115  1.0771  0.5456
12921SOL     OW40203   3.662   2.460   0.300  0.0598  0.0495  0.0420
12921SOL    HW140204   3.662   2.489   0.209 -0.5545  0.2014  0.0867
12921SOL    HW240205   3.712   2.378   0.298  0.8263  0.5074 -0.2722
12922SOL     OW40206   7.139   6.509   4.778  0.0671  0.1340  0.3160
12922SOL    HW140207   7.060   6.475   4.820 -0.2029  1.7485  1.1709
12922SOL    HW240208   7.153   6.450   4.703 -1.1055 -1.0393  0.9755
12923SOL     OW40209   3.846   2.469   3.992  0.5605  0.3047 -0.4435
12923SOL    HW140210   3.891   2.399   4.038  0.0929 -1.4094 -2.4343
12923SOL    HW240211   3.899   2.485   3.914 -0.4753  0.6673 -1.0970
12924SOL     OW40212   4.080   5.966   7.023 -0.6825  0.3085  0.0136
12924SOL    HW140213   4.131   5.888   7.049  0.6667  0.9751 -0.5258
12924SOL    HW240214   4.142   6.019   6.974 -2.1457  0.8139 -1.3507
12925SOL     OW40215   5.088   2.597   9.202 -0.6989  0.0006  0.4146
12925SOL    HW140216   5.134   2.513   9.208 -0.2446  0.1935 -0.2750
12925SOL    HW240217   5.001   2.579   9.238 -0.8677 -0.9717 -0.4249
12926SOL     OW40218   7.829   4.789   5.292 -0.2484  0.3311 -0.0579
12926SOL    HW140219   7.856   4.854   5.228 -2.3954  0.4311 -0.9451
12926SOL    HW240220   7.881   4.712   5.272  3.7557  2.1371  2.1924
12927SOL     OW40221   4.530   6.753   8.599 -0.5952  0.4240  0.0897
12927SOL    HW140222   4.520   6.681   8.537 -0.5145  0.1344  0.4029
12927SOL    HW240223   4.607   6.728   8.651 -0.5806  0.7272  0.2121
12928SOL     OW40224   0.213   2.534   8.068  0.9010  0.4684 -0.2579
12928SOL    HW140225   0.191   2.442   8.052 -0.2213  1.0414 -2.3702
12928SOL    HW240226   0.128   2.578   8.078  1.4012  1.3838  0.1052
12929SOL     OW40227   0.804   1.531   1.757  0.3837 -0.2025 -0.3720
12929SOL    HW140228   0.777   1.621   1.772  2.3455  0.6645 -1.6042
12929SOL    HW240229   0.900   1.533   1.767  0.4093 -2.3457  0.4469
12930SOL     OW40230   2.988   0.609   2.397  0.2945 -0.4169  0.0039
12930SOL    HW140231   3.072   0.585   2.436  1.0295  0.8637 -0.7271
12930SOL    HW240232   2.953   0.677   2.454  0.5611  0.2333 -0.5886
12931SOL     OW40233   7.010   5.706  10.248  0.1470  0.0639  0.6978
12931SOL    HW140234   7.059   5.641  10.197  0.8625 -0.5800  2.1512
12931SOL    HW240235   7.065   5.784  10.248 -0.7147  0.7270 -1.0518
12932SOL     OW40236   3.408   1.990   3.328 -0.1744  0.2068  0.2711
12932SOL    HW140237   3.434   1.898   3.338  0.8440  0.4207 -0.2322
12932SOL    HW240238   3.439   2.014   3.241  0.3867  1.2816  0.7448
12933SOL     OW40239   5.951   4.450  12.240  0.6391  0.3936 -0.0944
12933SOL    HW140240   5.914   4.536  12.259  1.2002  0.4013  1.0035
12933SOL    HW240241   5.959   4.407  12.325 -0.0959 -0.9475 -0.6680
12934SOL     OW40242   0.479   0.611   7.185 -0.2121 -0.1110 -0.2396
12934SOL    HW140243   0.471   0.556   7.263  0.5217  0.1677  0.0351
12934SOL    HW240244   0.395   0.600   7.140 -0.6191 -0.3240  0.5517
12935SOL     OW40245   3.703   0.704   0.276 -0.6561 -0.6950  0.0691
12935SOL    HW140246   3.768   0.635   0.274 -0.7129 -0.7453 -0.2326
12935SOL    HW240247   3.719   0.752   0.357 -0.5183 -0.9668  0.2014
12936SOL     OW40248   0.246   1.328  10.444 -0.4451  0.0965 -0.2497
12936SOL    HW140249   0.312   1.392  10.470 -0.2479 -0.5069  0.7970
12936SOL    HW240250   0.218   1.288  10.526 -1.2238 -0.5242 -0.8015
12937SOL     OW40251   5.271   4.357   9.108  0.6470 -0.2350  0.1537
12937SOL    HW140252   5.318   4.424   9.157  0.0385  0.2996  0.0232
12937SOL    HW240253   5.179   4.381   9.118  0.5089 -0.0774 -1.2852
12938SOL     OW40254   0.458   3.148   6.902  0.0196 -0.2305  1.1123
12938SOL    HW140255   0.515   3.174   6.830 -0.2854  0.5631  1.1490
12938SOL    HW240256   0.516   3.102   6.963 -0.0043 -2.3754 -0.3508
12939SOL     OW40257   7.177   7.347   0.089 -0.0954 -0.1265  0.2173
12939SOL    HW140258   7.231   7.293   0.032  0.3295 -0.6637  1.1139
12939SOL    HW240259   7.185   7.435   0.052 -1.6213 -0.7710 -1.8809
12940SOL     OW40260   6.067   2.742   2.003 -0.5613 -0.1040  0.2356
12940SOL    HW140261   6.105   2.809   2.060 -1.4357  0.1533  0.5247
12940SOL    HW240262   6.016   2.791   1.939  0.8157 -0.3616 -1.0971
12941SOL     OW40263   1.002   2.070   5.544 -0.3400  0.1254 -0.1704
12941SOL    HW140264   1.066   2.139   5.524 -0.1957  0.3358  0.9192
12941SOL    HW240265   0.995   2.020   5.463 -0.9154  1.7765 -1.2074
12942SOL     OW40266   3.168   5.377   8.715  0.7435 -0.1185 -0.5028
12942SOL    HW140267   3.118   5.439   8.769  1.1586 -1.2202  1.2557
12942SOL    HW240268   3.215   5.432   8.652  1.3152  1.3929  1.1504
12943SOL     OW40269   7.031   4.504  11.609 -0.0818  0.1225  0.4367
12943SOL    HW140270   6.941   4.500  11.643 -0.5348 -1.5694 -0.8142
12943SOL    HW240271   7.056   4.595  11.620 -1.7101  0.5027  1.4326
12944SOL     OW40272   4.675   0.951  10.488  0.3788 -0.4082 -0.5357
12944SOL    HW140273   4.727   0.953  10.408  0.4620 -0.4132 -0.4827
12944SOL    HW240274   4.680   0.860  10.518  0.7441 -0.3087 -0.2691
12945SOL     OW40275   1.078   1.085   0.668 -0.0358 -0.5931 -0.2569
12945SOL    HW140276   1.158   1.122   0.631 -0.3522  1.2499  0.7377
12945SOL    HW240277   1.008   1.111   0.608 -0.3841  1.3684  0.8880
12946SOL     OW40278   4.527   7.947   4.866 -0.3403  0.7014 -0.3577
12946SOL    HW140279   4.613   7.905   4.860 -0.2978  0.5136  1.2366
12946SOL    HW240280   4.465   7.876   4.848 -0.2109  0.3793  0.4376
12947SOL     OW40281   0.486   4.110   4.169 -0.3163 -0.1464  0.1388
12947SOL    HW140282   0.416   4.167   4.202  0.1066  1.4492 -1.5561
12947SOL    HW240283   0.439   4.039   4.124 -0.9444  1.4743 -1.9258
12948SOL     OW40284   1.568   5.098   3.708 -0.0041  0.4030  0.1179
12948SOL    HW140285   1.495   5.087   3.768  0.8351 -0.6300  0.9938
12948SOL    HW240286   1.646   5.073   3.758  0.5991 -1.7863 -1.7188
12949SOL     OW40287   1.194   7.314   2.614 -0.4908  0.0621 -0.4532
12949SOL    HW140288   1.208   7.284   2.704 -1.6213  1.1999  0.1399
12949SOL    HW240289   1.276   7.356   2.590 -0.9552  1.9440  0.9938
12950SOL     OW40290   1.268   1.657  10.789 -0.0527  0.0186 -0.3874
12950SOL    HW140291   1.272   1.598  10.864 -0.4746  0.0965 -0.3007
12950SOL    HW240292   1.232   1.738  10.825  2.6752  1.1550  0.0229
12951SOL     OW40293   5.661   1.926  11.094 -0.3277  0.2413 -0.0841
12951SOL    HW140294   5.671   1.850  11.151 -0.2725 -0.1007 -0.5436
12951SOL    HW240295   5.751   1.953  11.074 -0.3291 -0.4181 -1.0293
12952SOL     OW40296   3.708   4.328  10.993 -0.2176 -0.5733 -0.2774
12952SOL    HW140297   3.721   4.257  10.930  5.1592  0.9622 -1.4259
12952SOL    HW240298   3.709   4.284  11.078 -1.3846 -2.1628 -1.0234
12953SOL     OW40299   5.777   5.590   3.928  0.3181  0.0551  0.4099
12953SOL    HW140300   5.806   5.678   3.902  1.7443  0.1248  2.0318
12953SOL    HW240301   5.850   5.533   3.904 -0.5795 -0.6971 -0.5874
12954SOL     OW40302   7.731   0.880   0.096 -0.0779 -0.2497 -0.8160
12954SOL    HW140303   7.756   0.793   0.125 -0.3574 -0.7781 -2.0786
12954SOL    HW240304   7.692   0.921   0.174  0.9906 -0.8625  0.0625
12955SOL     OW40305   7.597   4.998   8.014 -0.1075  0.1879  0.1609
12955SOL    HW140306   7.603   4.902   8.021  0.1173  0.1384 -0.6390
12955SOL    HW240307   7.670   5.023   7.957 -0.4439  0.7869 -0.0200
12956SOL     OW40308   4.534   2.584  11.928  0.1061 -1.0780  0.0449
12956SOL    HW140309   4.573   2.564  11.843  3.2951  0.8095  0.8725
12956SOL    HW240310   4.517   2.678  11.926 -1.5561 -1.3250  0.8738
12957SOL     OW40311   4.703   5.997   4.185  0.5742 -0.1993  0.5996
12957SOL    HW140312   4.612   6.025   4.173  0.9448  0.7122 -0.1535
12957SOL    HW240313   4.697   5.927   4.250 -0.8360 -1.1221 -0.4382
12958SOL     OW40314   1.291   0.118  11.038 -0.3214 -0.2108 -0.0125
12958SOL    HW140315   1.308   0.085  11.126  1.0042  1.5768  0.4482
12958SOL    HW240316   1.365   0.089  10.985 -0.3430  0.0102 -0.1693
12959SOL     OW40317   1.806   4.528  12.175 -0.5713 -0.7688 -0.4331
12959SOL    HW140318   1.810   4.520  12.270 -1.3704  2.3599 -0.0217
12959SOL    HW240319   1.827   4.619  12.157 -0.7752 -1.1657 -3.2578
12960SOL     OW40320   1.376   1.918   3.277 -0.2069  0.3138 -0.2968
12960SOL    HW140321   1.361   1.861   3.201 -0.2369  0.2201 -0.2200
12960SOL    HW240322   1.459   1.889   3.313 -1.1327 -0.9952  0.9046
12961SOL     OW40323   7.402   3.358   9.972  0.4871 -0.5886  0.2668
12961SOL    HW140324   7.454   3.406   9.908 -0.1879 -0.0510  0.1124
12961SOL    HW240325   7.409   3.409  10.053 -1.5967  0.7561 -0.3186
12962SOL     OW40326   3.309   1.603   8.088  0.7551  0.4469 -0.3936
12962SOL    HW140327   3.387   1.639   8.131 -0.8578  0.8225  2.4437
12962SOL    HW240328   3.302   1.514   8.123 -0.2393  0.5252 -0.3764
12963SOL     OW40329   4.918   2.971   9.873 -0.2860  0.4513 -0.3961
12963SOL    HW140330   4.930   2.930   9.788  0.9117 -0.4637  0.1765
12963SOL    HW240331   4.837   3.021   9.865  0.5515  1.5789 -2.5139
12964SOL     OW40332   6.978   0.357   7.740 -0.0287 -0.1231  0.4799
12964SOL    HW140333   7.034   0.315   7.675 -1.7518  0.7947 -1.7800
12964SOL    HW240334   6.950   0.439   7.698 -2.5659 -0.2688  1.6468
12965SOL     OW40335   1.049   2.482   6.295 -0.4677  0.4836  0.2067
12965SOL    HW140336   1.107   2.519   6.228 -1.2999 -0.0296 -0.8267
12965SOL    HW240337   1.054   2.387   6.281 -0.3433  0.3347  1.1558
12966SOL     OW40338   2.541   1.949   1.672  0.0899 -0.6448  0.4032
12966SOL    HW140339   2.509   1.866   1.708  0.1193 -0.5531  0.6483
12966SOL    HW240340   2.573   1.997   1.749  3.4476 -1.8663 -0.0476
12967SOL     OW40341   7.279   7.885   2.845  0.4057 -0.0987  0.3065
12967SOL    HW140342   7.284   7.840   2.929  0.5501  2.0528  1.5166
12967SOL    HW240343   7.241   7.820   2.786  0.4942 -1.7454  1.9593
12968SOL     OW40344   7.528   0.086   5.529  0.2415 -0.3782 -0.4533
12968SOL    HW140345   7.479   0.098   5.611  1.5623 -1.3167  0.5113
12968SOL    HW240346   7.460   0.085   5.461 -0.7999  1.5306  0.4712
12969SOL     OW40347   5.248   5.987   6.517 -0.2037  0.0703  0.0067
12969SOL    HW140348   5.220   6.014   6.429  0.3336 -0.4998 -0.3429
12969SOL    HW240349   5.172   5.941   6.553 -0.9891  1.6268  0.4504
12970SOL     OW40350   7.276   7.723   1.930  0.2532 -0.2097 -0.2184
12970SOL    HW140351   7.209   7.662   1.901  0.1530  0.6565 -2.0004
12970SOL    HW240352   7.320   7.750   1.849  0.5531  1.7468  0.5329
12971SOL     OW40353   5.984   5.077   7.642  0.4763 -0.4611 -0.3749
12971SOL    HW140354   5.906   5.024   7.628  0.9707 -0.9555 -1.3530
12971SOL    HW240355   6.042   5.056   7.569  1.4064  0.1274  0.1561
12972SOL     OW40356   5.505   0.588   8.670 -0.1732  0.7576  0.2556
12972SOL    HW140357   5.541   0.548   8.591  0.2320 -0.6613  1.1203
12972SOL    HW240358   5.530   0.680   8.663  1.1162  0.3821 -0.5856
12973SOL     OW40359   7.591   4.190   5.020 -0.1768  0.2602  0.2729
12973SOL    HW140360   7.550   4.130   4.958 -0.4359 -0.0266  0.7169
12973SOL    HW240361   7.518   4.235   5.061  0.0133  0.8206  0.0076
12974SOL     OW40362   5.506   2.985   0.130  0.2649  0.7826 -0.4446
12974SOL    HW140363   5.467   3.001   0.216  1.1921  2.6654 -0.3153
12974SOL    HW240364   5.575   3.051   0.123 -0.1312  1.0109 -2.8407
12975SOL     OW40365   4.150   0.460  12.135  0.3326  0.2602  0.3396
12975SOL    HW140366   4.133   0.518  12.061  0.1360  0.1586  0.3051
12975SOL    HW240367   4.228   0.411  12.109  1.0225  1.1218  0.7297
12976SOL     OW40368   4.422   1.605  11.249  0.3912 -0.8027  0.4840
12976SOL    HW140369   4.432   1.669  11.319  1.7239 -0.5938  0.1400
12976SOL    HW240370   4.367   1.650  11.184  1.4358  0.0756  0.1765
12977SOL     OW40371   3.270   0.318   5.615  0.1112  0.0117  0.3876
12977SOL    HW140372   3.242   0.308   5.706  0.6990  0.2573  0.6033
12977SOL    HW240373   3.227   0.246   5.569  0.1781 -0.4055  0.9506
12978SOL     OW40374   7.910   6.872   4.222  0.2298 -0.2374  0.2668
12978SOL    HW140375   7.970   6.856   4.295 -0.5384  1.3977  1.3081
12978SOL    HW240376   7.823   6.865   4.260 -0.1881  0.8446 -0.4300
12979SOL     OW40377   6.620   5.897   9.936 -0.1809 -0.5893  0.4248
12979SOL    HW140378   6.693   5.956   9.918 -0.5139  0.3416  1.9310
12979SOL    HW240379   6.554   5.921   9.870  0.4456 -0.6714 -0.2393
12980SOL     OW40380   7.571   1.341   0.507 -0.1593  0.2741  0.1078
12980SOL    HW140381   7.501   1.305   0.562 -0.5259  0.5884 -0.1482
12980SOL    HW240382   7.604   1.265   0.458 -0.0779  0.0601  0.4916
12981SOL     OW40383   7.145   1.850   1.107  0.0307  0.3088  0.0408
12981SOL    HW140384   7.206   1.860   1.034  1.8345 -2.8071  0.8872
12981SOL    HW240385   7.077   1.792   1.074  0.0113  0.1408  0.3660
12982SOL     OW40386   3.028   2.130   5.854  0.0709 -0.3709  0.3716
12982SOL    HW140387   3.008   2.091   5.769  0.0336 -0.2262  0.3130
12982SOL    HW240388   2.975   2.080   5.916 -0.0360 -0.3640  0.2876
12983SOL     OW40389   2.799   6.733   7.359 -0.2473 -0.2304  0.3219
12983SOL    HW140390   2.789   6.825   7.380  0.0039  0.1089 -0.9487
12983SOL    HW240391   2.721   6.711   7.307  0.4352 -0.3073 -0.7040
12984SOL     OW40392   4.375   2.346   9.858  0.2247 -0.0947  0.3821
12984SOL    HW140393   4.453   2.369   9.808  0.4786 -0.0834  0.7767
12984SOL    HW240394   4.317   2.421   9.847  0.0655 -0.3182 -0.3196
12985SOL     OW40395   5.923   7.805   5.221  0.2008 -0.2149  0.3464
12985SOL    HW140396   6.001   7.844   5.260 -0.1209 -0.0148  0.7983
12985SOL    HW240397   5.868   7.880   5.196 -0.8765 -0.3502  2.1455
12986SOL     OW40398   0.778   1.945   1.507 -0.3240  0.0308  0.2505
12986SOL    HW140399   0.687   1.935   1.535  0.1651 -0.2995  1.8349
12986SOL    HW240400   0.817   1.859   1.523  0.0463 -0.1172 -1.3340
12987SOL     OW40401   6.574   3.312   6.622 -0.2115  0.2994  0.4832
12987SOL    HW140402   6.523   3.355   6.690  0.1282  0.7788  0.4355
12987SOL    HW240403   6.612   3.383   6.571  0.4811 -0.0526  0.4962
12988SOL     OW40404   0.584   5.040  12.145 -0.3602 -0.4199 -0.5516
12988SOL    HW140405   0.513   5.034  12.209  0.8428 -1.7073  0.7280
12988SOL    HW240406   0.645   5.103  12.182  0.2525 -1.0265 -0.5162
12989SOL     OW40407   6.557   5.450   3.717  0.1122 -0.3405  0.2277
12989SOL    HW140408   6.557   5.486   3.806 -1.1326  0.6145 -0.1281
12989SOL    HW240409   6.465   5.435   3.698  0.2200  0.8982 -1.4431
12990SOL     OW40410   5.845   1.902  10.015  0.0746 -0.0356  0.5030
12990SOL    HW140411   5.909   1.963  10.051 -0.9585  1.6854 -0.4538
12990SOL    HW240412   5.805   1.860  10.091  0.9839  0.2873  1.1701
12991SOL     OW40413   7.562   5.253  11.045  0.4351 -0.3919  0.1574
12991SOL    HW140414   7.526   5.341  11.055 -0.4170 -0.7599  0.3599
12991SOL    HW240415   7.489   5.194  11.066  1.2087 -1.1496  0.8155
12992SOL     OW40416   3.191   0.383   0.477  0.4659  0.3518 -0.2348
12992SOL    HW140417   3.159   0.466   0.442 -0.3938  0.3621  0.5429
12992SOL    HW240418   3.164   0.383   0.568  1.8552 -0.0874  0.2002
12993SOL     OW40419   1.358   2.948   5.535 -0.5162 -0.0296 -0.0082
12993SOL    HW140420   1.414   2.936   5.458  0.4067  1.2642  0.4127
12993SOL    HW240421   1.415   2.926   5.609 -0.4545  1.5270  0.4439
12994SOL     OW40422   1.094   7.942   4.918  0.3421  0.4876  0.3525
12994SOL    HW140423   1.008   7.952   4.877  0.9235 -0.9284 -1.3724
12994SOL    HW240424   1.090   7.994   4.998 -1.7376  1.3278 -0.2525
12995SOL     OW40425   5.099   2.922   5.856  0.8301  0.1861  0.4023
12995SOL    HW140426   5.105   2.848   5.916  0.6429 -0.3245 -0.1951
12995SOL    HW240427   5.020   2.905   5.804  2.2027 -0.5758 -1.5417
12996SOL     OW40428   5.734   2.219   3.852  0.2675  0.1106  0.5049
12996SOL    HW140429   5.671   2.213   3.780  0.6579  0.6546  0.1153
12996SOL    HW240430   5.757   2.312   3.856  1.2534 -0.1202  0.4615
12997SOL     OW40431   1.289   5.740   8.089  0.0242  0.0753  0.4865
12997SOL    HW140432   1.304   5.755   7.995 -0.6666  0.7458  0.4773
12997SOL    HW240433   1.274   5.828   8.125 -1.9232 -0.3637  0.8337
12998SOL     OW40434   4.784   0.562   9.405  0.0412  0.1182 -0.1855
12998SOL    HW140435   4.730   0.576   9.483 -0.2294 -1.2246 -0.0974
12998SOL    HW240436   4.802   0.649   9.372 -1.7522  0.6377  0.0880
12999SOL     OW40437   4.293   2.451   3.723  0.0664 -0.1011 -0.2650
12999SOL    HW140438   4.367   2.413   3.770 -0.0848 -0.7682 -0.5577
12999SOL    HW240439   4.310   2.431   3.631  0.2765  1.0519 -0.4962
13000SOL     OW40440   1.726   1.895   8.256 -0.1643  0.3478 -0.1330
13000SOL    HW140441   1.680   1.811   8.257  0.2370  0.0464 -2.1006
13000SOL    HW240442   1.816   1.873   8.230 -0.3104  1.4466 -1.7690
13001SOL     OW40443   7.894   4.788  11.399  0.3948 -0.1623 -0.2727
13001SOL    HW140444   7.850   4.856  11.449  1.7194  1.2847 -0.9973
13001SOL    HW240445   7.837   4.773  11.323 -1.1580 -1.7212  1.1079
13002SOL     OW40446   0.017   5.102  10.597 -0.2242  0.9493 -0.3274
13002SOL    HW140447  -0.022   5.080  10.682  0.5576 -0.2933 -0.2587
13002SOL    HW240448   0.109   5.121  10.617  0.2202 -0.3750 -1.0004
13003SOL     OW40449   6.146   3.637   6.858 -0.5148 -0.3113  0.1511
13003SOL    HW140450   6.191   3.677   6.932 -3.5629  0.3585  1.8144
13003SOL    HW240451   6.127   3.548   6.887  0.8391 -1.0291 -1.0663
13004SOL     OW40452   4.731   1.813  10.514 -0.1317 -0.0486  0.5738
13004SOL    HW140453   4.658   1.808  10.576 -1.1880  1.4727 -0.4726
13004SOL    HW240454   4.695   1.862  10.439  1.6412 -0.2395 -0.4496
13005SOL     OW40455   7.410   6.674  10.540  0.3357  0.2951 -0.4525
13005SOL    HW140456   7.418   6.716  10.626  0.9484  2.6653 -1.5740
13005SOL    HW240457   7.316   6.660  10.529  0.0529  1.6923 -0.1078
13006SOL     OW40458   2.620   6.648   1.658 -0.2067 -0.3593 -0.1081
13006SOL    HW140459   2.538   6.695   1.669 -0.3334 -0.6922  0.3813
13006SOL    HW240460   2.672   6.704   1.600 -0.1797  0.5845  0.8064
13007SOL     OW40461   1.345   4.785   4.519  0.7262 -0.6743 -0.3685
13007SOL    HW140462   1.290   4.707   4.511  0.4254 -0.7051  1.5272
13007SOL    HW240463   1.293   4.855   4.479  0.3489 -1.1523 -0.7287
13008SOL     OW40464   4.936   5.381   4.570  0.3443 -0.2907  0.4764
13008SOL    HW140465   4.944   5.396   4.475 -0.8836  1.1425  0.5669
13008SOL    HW240466   4.969   5.462   4.610  0.1766 -0.6027  1.2563
13009SOL     OW40467   6.609   0.581   0.791 -0.2390  0.0833  0.3957
13009SOL    HW140468   6.686   0.576   0.734  1.7993  0.1875  2.9441
13009SOL    HW240469   6.641   0.554   0.877 -2.8940  0.8986  1.7606
13010SOL     OW40470   6.517   5.299  11.626  0.2650  0.0334 -0.1851
13010SOL    HW140471   6.475   5.258  11.701  0.8246 -0.8036 -0.3104
13010SOL    HW240472   6.564   5.374  11.662 -0.3988  0.3061  0.1199
13011SOL     OW40473   6.707   4.018   6.109 -0.1764  0.0974  0.1584
13011SOL    HW140474   6.776   3.983   6.052 -2.2086 -0.8329 -1.8949
13011SOL    HW240475   6.747   4.094   6.151  1.9256 -0.0522 -1.3860
13012SOL     OW40476   2.575   5.081   4.495  0.0954 -0.2944  0.3721
13012SOL    HW140477   2.526   5.023   4.437 -1.7484 -0.4324  1.9510
13012SOL    HW240478   2.652   5.107   4.445 -0.9887 -1.0499 -1.7891
13013SOL     OW40479   6.880   4.149   8.720  0.3462 -0.0902  0.7128
13013SOL    HW140480   6.803   4.094   8.709  1.1030 -1.2601  1.0907
13013SOL    HW240481   6.948   4.105   8.670  0.2998  2.0670 -1.4658
13014SOL     OW40482   7.221   3.002   9.287 -0.1284  0.0592  0.2590
13014SOL    HW140483   7.221   2.907   9.288 -2.0144  0.0040  1.9531
13014SOL    HW240484   7.314   3.026   9.286  0.4114 -1.8049  1.2465
13015SOL     OW40485   1.020   3.583   6.121 -0.1990  0.0162  0.3270
13015SOL    HW140486   0.951   3.644   6.096 -1.3289 -1.2003  0.3577
13015SOL    HW240487   0.984   3.497   6.100  2.1210 -0.5752 -1.6008
13016SOL     OW40488   6.491   4.530   1.465  0.5855  0.1119 -0.2714
13016SOL    HW140489   6.461   4.440   1.480  1.3237  0.0480  0.9696
13016SOL    HW240490   6.416   4.584   1.489 -0.6633 -0.1785 -3.1405
13017SOL     OW40491   7.651   1.335   1.924 -0.3765  0.8385 -0.2353
13017SOL    HW140492   7.709   1.259   1.927  1.6207  2.2957  1.9933
13017SOL    HW240493   7.563   1.299   1.929  0.4400 -1.3493 -0.5511
13018SOL     OW40494   1.821   2.218   0.484 -0.3770 -0.3758 -0.0104
13018SOL    HW140495   1.726   2.213   0.484 -0.5480  1.6241 -1.3193
13018SOL    HW240496   1.842   2.261   0.567 -0.3761 -2.6961  1.2944
13019SOL     OW40497   4.606   0.912   4.326 -0.2832  0.2440  0.3547
13019SOL    HW140498   4.575   0.974   4.260  2.1833  0.2270 -0.9071
13019SOL    HW240499   4.657   0.966   4.387  2.2186 -0.4574 -0.9721
13020SOL     OW40500   5.217   4.657   6.270  0.0470  0.1285  0.2889
13020SOL    HW140501   5.136   4.669   6.320 -0.0813 -2.0434  0.7092
13020SOL    HW240502   5.191   4.606   6.193  1.0346 -0.9395  0.6262
13021SOL     OW40503   5.148   5.987   3.767 -1.1092  0.1904 -0.1832
13021SOL    HW140504   5.105   6.018   3.847 -0.3637  0.5449  0.0965
13021SOL    HW240505   5.212   6.055   3.747 -0.0759 -0.7142 -0.0873
13022SOL     OW40506   1.416   3.197   6.372  0.0517 -0.4344 -0.0751
13022SOL    HW140507   1.407   3.122   6.314  0.4883  0.0098 -0.7383
13022SOL    HW240508   1.366   3.267   6.329  0.7674  0.0340 -0.1614
13023SOL     OW40509   2.696   4.684   2.254  0.5264  0.2268  0.1166
13023SOL    HW140510   2.725   4.752   2.193  0.5666  1.1679  1.1508
13023SOL    HW240511   2.776   4.639   2.279  0.5162 -0.1273 -0.4795
13024SOL     OW40512   3.672   4.091  11.611 -0.3292 -0.1784  0.4427
13024SOL    HW140513   3.613   4.152  11.567 -0.0684 -1.7478 -2.3237
13024SOL    HW240514   3.742   4.147  11.646 -0.9275  1.2587 -0.5624
13025SOL     OW40515   7.248   6.694   6.257 -0.1464  0.5737 -0.4427
13025SOL    HW140516   7.332   6.681   6.301 -0.2875 -0.1136 -0.3762
13025SOL    HW240517   7.206   6.766   6.305 -0.6446 -0.6775  1.0557
13026SOL     OW40518   1.430   0.181  10.450 -0.2382 -0.0965 -0.9573
13026SOL    HW140519   1.375   0.103  10.460 -1.0923  0.4600 -1.2058
13026SOL    HW240520   1.509   0.161  10.501 -1.4943 -0.1424  1.1104
13027SOL     OW40521   5.392   4.667   8.165  0.0763 -0.0992  0.6746
13027SOL    HW140522   5.371   4.680   8.257  0.6166  0.9134  0.6668
13027SOL    HW240523   5.348   4.738   8.119  0.6006 -0.0316  0.2602
13028SOL     OW40524   7.381   5.511   5.324 -0.5326 -0.3419 -0.3719
13028SOL    HW140525   7.466   5.478   5.352 -1.0163  0.9041  3.1225
13028SOL    HW240526   7.399   5.596   5.285 -0.0913 -0.5839 -0.6996
13029SOL     OW40527   6.590   0.282   0.329 -0.0917  0.1882  0.2351
13029SOL    HW140528   6.661   0.347   0.327 -2.7048  3.3131  0.1572
13029SOL    HW240529   6.566   0.271   0.237  0.1116 -0.6643  0.2824
13030SOL     OW40530   1.293   5.671   2.653 -0.0086  0.3583  0.2057
13030SOL    HW140531   1.335   5.716   2.579 -1.5128 -0.4737 -1.2374
13030SOL    HW240532   1.211   5.719   2.666  0.4317  0.7455  1.6380
13031SOL     OW40533   3.856   2.446   2.786  0.6870  0.2113  0.1502
13031SOL    HW140534   3.825   2.517   2.730 -0.0667 -1.6251 -1.9009
13031SOL    HW240535   3.800   2.451   2.864  0.0755  1.3232 -0.3360
13032SOL     OW40536   2.501   5.421   3.660 -0.8286  0.0549  0.0257
13032SOL    HW140537   2.494   5.335   3.701 -1.2923  0.8265  1.6695
13032SOL    HW240538   2.416   5.435   3.619 -0.1583 -0.9787 -1.8230
13033SOL     OW40539   6.487   1.546   0.322  0.1297 -1.0791  0.1731
13033SOL    HW140540   6.534   1.508   0.396  0.1547 -1.0540  0.1701
13033SOL    HW240541   6.398   1.513   0.330 -0.0668 -0.4538  0.6550
13034SOL     OW40542   5.411   2.198   2.464 -0.2374 -0.1871 -0.0712
13034SOL    HW140543   5.374   2.113   2.438  0.9696 -0.4793 -0.9102
13034SOL    HW240544   5.343   2.262   2.442 -1.1417 -0.9084  0.5210
13035SOL     OW40545   4.233   5.231   3.023  0.0923 -0.3525  0.1001
13035SOL    HW140546   4.313   5.186   3.052  0.6296  0.9583  0.7485
13035SOL    HW240547   4.206   5.184   2.945  0.9063 -1.4855  0.4730
13036SOL     OW40548   2.060   6.808   4.775 -0.0511 -0.9129  0.2433
13036SOL    HW140549   1.976   6.854   4.773 -0.1171 -0.8779 -3.1401
13036SOL    HW240550   2.116   6.858   4.715  2.2460 -1.2669  1.9685
13037SOL     OW40551   5.346   3.460   8.993  0.5773  0.4566  0.1297
13037SOL    HW140552   5.350   3.475   8.899 -0.7143  0.3744  0.0477
13037SOL    HW240553   5.287   3.385   9.003  1.6031 -0.2970  0.9492
13038SOL     OW40554   5.937   1.311  11.082  0.0931  0.1341 -0.3816
13038SOL    HW140555   5.882   1.308  11.003  0.5318 -1.3399 -0.6626
13038SOL    HW240556   5.883   1.273  11.151 -0.2016  1.2020 -0.0069
13039SOL     OW40557   6.093   0.471  10.128  0.3819 -0.2117 -0.4467
13039SOL    HW140558   6.057   0.451  10.215 -2.3079 -0.8505 -1.6345
13039SOL    HW240559   6.088   0.389  10.080  0.6639  0.4245 -1.6154
13040SOL     OW40560   1.160   2.727  11.506  0.3033 -0.5209  0.6516
13040SOL    HW140561   1.225   2.786  11.468  0.3392 -0.8641  0.1684
13040SOL    HW240562   1.085   2.731  11.446 -0.6058  0.7606  1.8163
13041SOL     OW40563   7.133   7.491   0.898  0.3167  0.3776  0.2875
13041SOL    HW140564   7.201   7.460   0.958 -0.0776  0.4086  0.7546
13041SOL    HW240565   7.054   7.495   0.952  0.1454  1.2214 -0.0249
13042SOL     OW40566   6.115   3.401   0.929  0.3016 -0.3945 -0.3520
13042SOL    HW140567   6.190   3.434   0.880 -0.0003 -1.4587 -1.5948
13042SOL    HW240568   6.107   3.460   1.004 -0.5343  2.7021 -2.6669
13043SOL     OW40569   3.990   1.609   5.746  0.1530  0.0609  0.1544
13043SOL    HW140570   4.069   1.560   5.769 -0.3428 -0.0646  1.6854
13043SOL    HW240571   3.936   1.546   5.697  0.6013 -0.1317 -0.0948
13044SOL     OW40572   7.268   5.449   0.740 -0.3316  0.2935  0.0871
13044SOL    HW140573   7.352   5.404   0.743 -0.4970 -0.1718 -1.3512
13044SOL    HW240574   7.231   5.438   0.827  1.1194  0.5869  0.7788
13045SOL     OW40575   1.165   4.502  12.401 -0.7862 -0.7526 -0.4225
13045SOL    HW140576   1.149   4.477  12.310 -0.7943 -0.8591 -0.3925
13045SOL    HW240577   1.098   4.454  12.450 -0.9619 -0.4772 -0.3885
13046SOL     OW40578   2.729   7.517  10.462 -0.5153  0.0637  0.8043
13046SOL    HW140579   2.810   7.498  10.509  1.7844 -0.1048 -2.8032
13046SOL    HW240580   2.670   7.446  10.485  0.2616  0.1802  3.5425
13047SOL     OW40581   6.020   5.164   8.614 -0.4564 -0.2475 -0.2167
13047SOL    HW140582   6.097   5.220   8.620 -1.3114  0.9441 -0.0723
13047SOL    HW240583   6.021   5.113   8.696  0.0171 -0.0446 -0.0939
13048SOL     OW40584   4.127   5.718   9.615 -0.8122 -0.6005  0.1792
13048SOL    HW140585   4.051   5.687   9.663 -1.0126  1.1677  1.1042
13048SOL    HW240586   4.198   5.659   9.640 -1.2110 -0.4824  1.6779
13049SOL     OW40587   6.026   6.974   1.573  0.1492 -0.0436  0.4922
13049SOL    HW140588   6.115   6.964   1.541  0.3119 -0.2876  1.0121
13049SOL    HW240589   5.971   6.959   1.496  0.5948  3.7921 -0.7753
13050SOL     OW40590   6.176   7.869   0.453 -0.3316  0.7458 -0.5044
13050SOL    HW140591   6.177   7.924   0.532 -1.9443 -0.1195  0.1665
13050SOL    HW240592   6.144   7.927   0.384 -1.7469  0.7708  0.1373
13051SOL     OW40593   4.696   0.954  11.926 -0.2674  0.0022  0.1033
13051SOL    HW140594   4.679   0.922  12.015 -1.1506  0.0242 -0.0508
13051SOL    HW240595   4.713   1.047  11.937  2.5271 -0.4768  0.5824
13052SOL     OW40596   4.839   1.094  10.316  0.4313 -0.4951 -0.4847
13052SOL    HW140597   4.910   1.111  10.377  0.7928  0.2834 -1.1070
13052SOL    HW240598   4.882   1.085  10.231 -0.3040  1.1247 -1.0613
13053SOL     OW40599   5.605   3.814   4.816 -0.1814  0.1700  0.1460
13053SOL    HW140600   5.681   3.836   4.761 -0.4530  2.7787  0.6605
13053SOL    HW240601   5.637   3.748   4.877  0.9069 -0.7226 -1.3240
13054SOL     OW40602   6.601   1.982   0.299  0.0167  0.0275 -0.1006
13054SOL    HW140603   6.589   1.906   0.242  0.9411 -0.3668  0.2042
13054SOL    HW240604   6.566   2.055   0.249 -0.1962 -0.4836 -0.7159
13055SOL     OW40605   7.466   3.212   8.514  0.2009 -0.0472 -0.0283
13055SOL    HW140606   7.380   3.186   8.483 -0.0436 -0.4677  0.9608
13055SOL    HW240607   7.470   3.180   8.604  1.1595  0.4898  0.1382
13056SOL     OW40608   5.975   1.227   2.134  0.2925  1.2469 -0.3531
13056SOL    HW140609   5.969   1.318   2.105  1.9168  1.8090  0.9063
13056SOL    HW240610   6.004   1.179   2.056  0.5871  2.0160 -0.7289
13057SOL     OW40611   6.642   4.935   0.012 -0.1009 -0.4922  0.5193
13057SOL    HW140612   6.678   5.017  -0.023  1.6766 -0.4998  2.1809
13057SOL    HW240613   6.578   4.907  -0.054  2.8092 -0.3711 -2.6326
13058SOL     OW40614   3.395   2.950  11.729 -0.4914  0.0902  0.0290
13058SOL    HW140615   3.318   2.939  11.673 -1.5507  0.2938  1.3850
13058SOL    HW240616   3.375   2.898  11.807  0.6515  0.3332  0.4991
13059SOL     OW40617   0.790   0.671   2.682  0.8409 -0.1667  0.2714
13059SOL    HW140618   0.710   0.679   2.735  1.3077 -0.7038  1.0893
13059SOL    HW240619   0.802   0.758   2.644 -0.3302 -0.1802 -0.1729
13060SOL     OW40620   2.253   1.045  11.707  0.0139  0.2657 -0.4842
13060SOL    HW140621   2.201   1.123  11.727 -1.8836 -1.0105 -0.2749
13060SOL    HW240622   2.242   0.988  11.782  1.0607 -0.3975 -0.8126
13061SOL     OW40623   7.703   7.774   4.157 -0.3075 -0.4079  0.4976
13061SOL    HW140624   7.608   7.784   4.159 -0.2881  0.0118 -0.1299
13061SOL    HW240625   7.737   7.863   4.170 -0.0205 -0.4225 -0.1096
13062SOL     OW40626   2.162   1.891   2.631 -1.1784 -0.3407  0.2884
13062SOL    HW140627   2.183   1.812   2.681 -2.0693 -0.7783 -0.0235
13062SOL    HW240628   2.243   1.911   2.583 -0.7424 -0.6797  0.8676
13063SOL     OW40629   6.483   2.788   9.387  0.1051  0.0742  0.5217
13063SOL    HW140630   6.443   2.702   9.399  0.6079 -0.3822 -0.8337
13063SOL    HW240631   6.438   2.845   9.449 -1.8899 -0.6590 -0.1737
13064SOL     OW40632   7.909   6.056   8.930  0.5148  0.2706 -0.2954
13064SOL    HW140633   7.884   6.032   9.019  0.1367 -0.1518 -0.5135
13064SOL    HW240634   7.872   5.987   8.874 -1.3737  1.7839 -1.0245
13065SOL     OW40635   2.620   0.544   2.541  0.5519 -0.1265  0.3361
13065SOL    HW140636   2.652   0.626   2.504  0.1161  0.0869  0.4300
13065SOL    HW240637   2.700   0.495   2.561  0.8104  0.1186 -0.0599
13066SOL     OW40638   1.104   3.762   6.939  0.2305  0.6250  0.0725
13066SOL    HW140639   1.116   3.832   7.003  0.0361  1.1783 -0.4903
13066SOL    HW240640   1.140   3.684   6.982  1.5389  1.2989  0.2560
13067SOL     OW40641   5.931   3.286   1.791  0.6283 -0.2253 -0.2429
13067SOL    HW140642   5.895   3.258   1.707  0.2152 -2.5176  0.5958
13067SOL    HW240643   5.914   3.380   1.795 -1.8586 -0.5258 -1.5619
13068SOL     OW40644   0.752   1.447   3.857 -0.1738 -0.0426 -0.0759
13068SOL    HW140645   0.746   1.494   3.940  3.1810  0.0832  0.2381
13068SOL    HW240646   0.682   1.485   3.803 -1.2278  1.2054  2.0289
13069SOL     OW40647   2.128   3.257   2.088  0.6649 -0.0377  0.2331
13069SOL    HW140648   2.138   3.333   2.145  1.0407  1.1609 -1.3807
13069SOL    HW240649   2.056   3.207   2.127 -0.0363  1.4803  0.9553
13070SOL     OW40650   7.053   5.099   7.783 -0.3302 -0.2292  0.2353
13070SOL    HW140651   7.032   5.014   7.821 -0.1015  0.4786  2.0605
13070SOL    HW240652   6.998   5.105   7.705 -1.9431 -1.1635  1.2443
13071SOL     OW40653   0.982   2.970  11.550 -0.3359  0.1464  0.1985
13071SOL    HW140654   0.927   3.036  11.592 -0.0563 -0.6626  1.9450
13071SOL    HW240655   1.057   3.018  11.517 -0.6372  0.8519  0.5170
13072SOL     OW40656   0.557   3.894   8.520 -0.0232  0.4280 -0.3755
13072SOL    HW140657   0.494   3.954   8.559  0.2674  1.3383 -1.2865
13072SOL    HW240658   0.620   3.950   8.475  1.2228 -0.4766  0.1829
13073SOL     OW40659   2.934   1.163  11.846 -0.2572  0.1008  0.0092
13073SOL    HW140660   3.013   1.129  11.803  0.8734  2.1502  0.3118
13073SOL    HW240661   2.870   1.174  11.776  0.6351  0.8187 -0.7242
13074SOL     OW40662   0.643   4.293   1.787 -0.3592  0.4885 -0.4540
13074SOL    HW140663   0.701   4.352   1.834  1.2819 -0.3663 -1.3410
13074SOL    HW240664   0.573   4.273   1.850  1.2883  0.0804  1.3264
13075SOL     OW40665   6.325   5.695   3.625 -0.0673 -0.3331 -0.0264
13075SOL    HW140666   6.384   5.694   3.550  1.6511  0.6122  1.2502
13075SOL    HW240667   6.368   5.751   3.689 -3.6503  2.7642  0.0034
13076SOL     OW40668   4.176   7.501   5.131  0.7064  0.4155  0.2244
13076SOL    HW140669   4.088   7.537   5.122  1.4355  1.7998 -3.1416
13076SOL    HW240670   4.221   7.563   5.188  0.0920  1.0708  0.0187
13077SOL     OW40671   5.095   4.205  12.240 -0.2708 -0.5241  0.0808
13077SOL    HW140672   5.106   4.300  12.235 -0.9211 -0.4603 -0.2200
13077SOL    HW240673   5.047   4.191  12.322 -0.0755 -0.6056  0.1818
13078SOL     OW40674   7.586   7.108   1.284 -0.2108  0.0304  0.0925
13078SOL    HW140675   7.538   7.134   1.362 -0.6165  0.0670 -0.1690
13078SOL    HW240676   7.644   7.038   1.314 -0.4757 -0.0637  0.3927
13079SOL     OW40677   0.609   6.580   9.787  0.1528  0.7052  0.4331
13079SOL    HW140678   0.521   6.560   9.817  0.7723 -0.7998  1.3673
13079SOL    HW240679   0.655   6.610   9.866  0.7266  0.5598  0.1576
13080SOL     OW40680   1.323   3.823  11.096 -0.4626 -0.1954  0.0892
13080SOL    HW140681   1.399   3.776  11.062  0.5606 -0.2558  2.3139
13080SOL    HW240682   1.326   3.908  11.053  0.6663 -0.3224 -0.1124
13081SOL     OW40683   5.220   2.699   8.435  0.0078 -0.5198  0.3249
13081SOL    HW140684   5.187   2.785   8.408 -0.2175 -0.8007 -0.3200
13081SOL    HW240685   5.315   2.705   8.422  0.2112  0.1867  1.8897
13082SOL     OW40686   5.756   7.627   0.638  0.7638 -0.3039 -0.0657
13082SOL    HW140687   5.757   7.556   0.702  1.9349 -0.9300 -0.7394
13082SOL    HW240688   5.837   7.674   0.654  0.4659  0.2860 -0.2825
13083SOL     OW40689   7.789   0.471   7.768 -0.0008  0.7502  0.2016
13083SOL    HW140690   7.862   0.432   7.721  0.7061  1.7219  0.4485
13083SOL    HW240691   7.788   0.426   7.853 -0.1329  0.2573 -0.0580
13084SOL     OW40692   1.369   7.401   4.560 -0.2455 -0.1622 -0.1748
13084SOL    HW140693   1.394   7.493   4.550  0.2330 -0.4414 -1.8631
13084SOL    HW240694   1.452   7.354   4.568 -0.4627 -0.5333 -0.0525
13085SOL     OW40695   7.953   0.752  10.001 -0.3782 -0.5814 -0.8680
13085SOL    HW140696   7.904   0.693  10.058  0.0114  0.4637  0.5963
13085SOL    HW240697   7.913   0.741   9.915 -1.3076 -1.8367 -0.2967
13086SOL     OW40698   3.965   6.803  10.923  0.0329 -0.3660  0.0801
13086SOL    HW140699   3.903   6.761  10.983 -0.6548 -1.1195 -1.1159
13086SOL    HW240700   4.031   6.736  10.907 -0.4940 -0.6548 -0.9998
13087SOL     OW40701   0.414   4.836   6.210 -0.4675  0.7027  0.3468
13087SOL    HW140702   0.334   4.790   6.185  0.8927 -0.7866 -1.5904
13087SOL    HW240703   0.439   4.797   6.294  0.2390 -1.6448 -0.8813
13088SOL     OW40704   5.315   1.355   2.507 -0.1180 -0.2838  0.0889
13088SOL    HW140705   5.246   1.293   2.532  0.7377 -2.0302 -1.6288
13088SOL    HW240706   5.396   1.304   2.510  1.1204  1.6358  1.7089
13089SOL     OW40707   4.729   4.345  12.237 -0.2592 -0.3177  0.5582
13089SOL    HW140708   4.668   4.414  12.264 -0.4048 -1.5175  3.7873
13089SOL    HW240709   4.816   4.379  12.260 -0.0673 -0.2138 -0.2808
13090SOL     OW40710   6.841   6.658   0.541  0.3539 -0.3288  0.4316
13090SOL    HW140711   6.870   6.687   0.628  2.7139  1.1610 -0.7602
13090SOL    HW240712   6.920   6.627   0.498 -0.6053 -0.2965 -1.4702
13091SOL     OW40713   7.234   3.293   7.213  0.5378  0.1411  0.3767
13091SOL    HW140714   7.224   3.381   7.175 -1.3293  0.3901  1.3398
13091SOL    HW240715   7.288   3.246   7.150  0.5880  1.6277 -0.7482
13092SOL     OW40716   4.221   0.672  11.950 -0.4824  0.3191  0.0481
13092SOL    HW140717   4.285   0.602  11.936  1.8173  2.5290 -1.4041
13092SOL    HW240718   4.160   0.663  11.876  0.0138  0.0477 -0.3395
13093SOL     OW40719   6.401   5.715   8.485  0.3758  0.3384  0.8422
13093SOL    HW140720   6.373   5.802   8.459  1.6295  0.7073  0.6358
13093SOL    HW240721   6.320   5.664   8.491 -0.2560  1.1434 -0.3775
13094SOL     OW40722   4.800   7.571   6.120 -0.4763 -0.1781 -0.1115
13094SOL    HW140723   4.810   7.616   6.204  0.2884  0.6764 -0.6356
13094SOL    HW240724   4.732   7.622   6.075 -1.0310 -0.7580  0.0607
13095SOL     OW40725   1.236   2.806   7.029  0.3719  0.1604 -0.0403
13095SOL    HW140726   1.302   2.873   7.044  1.1303 -0.4225 -0.7005
13095SOL    HW240727   1.284   2.724   7.028 -0.3167 -0.2520 -0.7996
13096SOL     OW40728   1.337   6.822   6.755 -0.3226 -0.4742  0.8115
13096SOL    HW140729   1.420   6.801   6.798  0.4393  0.1679 -0.2851
13096SOL    HW240730   1.283   6.744   6.767  0.4527 -0.9170  1.5193
13097SOL     OW40731   6.485   4.204   5.082  0.2363  0.7047  0.5718
13097SOL    HW140732   6.550   4.151   5.036  0.0722  0.6147  0.4411
13097SOL    HW240733   6.527   4.289   5.094  0.6759  0.4001  1.2043
13098SOL     OW40734   2.463   3.213  11.686 -0.5248 -0.3571  0.2651
13098SOL    HW140735   2.394   3.253  11.633 -0.8319 -0.2529  0.7381
13098SOL    HW240736   2.516   3.163  11.623 -0.7352 -0.0306 -0.1732
13099SOL     OW40737   5.761   5.166   3.149 -0.3048  0.1751  0.0972
13099SOL    HW140738   5.680   5.186   3.104 -1.2577 -1.6851  0.8887
13099SOL    HW240739   5.744   5.084   3.195  2.4429 -1.0317 -0.8070
13100SOL     OW40740   1.105   6.133   1.333  0.6847 -0.1761  0.1624
13100SOL    HW140741   1.127   6.099   1.419  1.9119  1.1188  0.4045
13100SOL    HW240742   1.181   6.113   1.279  1.7987  2.6437  0.4952
13101SOL     OW40743   0.734   2.510   1.982  0.0873 -0.1053  0.1187
13101SOL    HW140744   0.744   2.482   1.891  1.3366 -0.5698  0.3800
13101SOL    HW240745   0.716   2.430   2.031  0.3666  0.0017  0.4054
13102SOL     OW40746   7.115   0.099   1.390  0.0570 -0.1762  0.5375
13102SOL    HW140747   7.150   0.123   1.476 -0.9840 -1.0401  1.2334
13102SOL    HW240748   7.182   0.127   1.328  0.6713  0.7976  1.5969
13103SOL     OW40749   2.200   1.909   4.102 -0.4172 -0.0649  0.0621
13103SOL    HW140750   2.144   1.986   4.117  0.6128  0.7786 -0.2467
13103SOL    HW240751   2.268   1.916   4.169  0.3022 -0.0930 -0.6503
13104SOL     OW40752   5.802   5.928   2.397  0.0973 -0.3567  0.3496
13104SOL    HW140753   5.770   6.013   2.427 -1.6896 -0.1871 -1.8075
13104SOL    HW240754   5.895   5.943   2.376 -0.8396  2.0347 -2.9003
13105SOL     OW40755   7.495   4.420   0.106  0.3875 -0.4031  0.1506
13105SOL    HW140756   7.514   4.327   0.120  0.2734 -0.3418  0.7074
13105SOL    HW240757   7.399   4.424   0.102  0.3943 -0.3124  0.0638
13106SOL     OW40758   5.330   5.764  11.310 -0.0079  0.1588  0.3249
13106SOL    HW140759   5.355   5.679  11.274 -0.0451  0.1084  0.4146
13106SOL    HW240760   5.320   5.748  11.404  0.1163  0.2933  0.3624
13107SOL     OW40761   5.205   1.698   2.398  0.1876  0.2218 -0.0665
13107SOL    HW140762   5.290   1.678   2.360  0.7286  3.4699 -0.8084
13107SOL    HW240763   5.151   1.724   2.324 -1.7971 -2.4508  0.2869
13108SOL     OW40764   7.526   6.870   6.489 -0.5415  0.1070 -0.1449
13108SOL    HW140765   7.478   6.890   6.569 -1.1836 -0.8885 -0.2515
13108SOL    HW240766   7.531   6.774   6.488 -0.7919  0.0813 -1.4215
13109SOL     OW40767   6.692   2.601   7.573 -0.4948  0.0482  0.3596
13109SOL    HW140768   6.688   2.696   7.561 -0.6554  0.0955  0.7962
13109SOL    HW240769   6.625   2.581   7.638 -3.9196 -0.9750 -3.1318
13110SOL     OW40770   1.617   7.931   6.903  0.4418 -0.0758 -0.0442
13110SOL    HW140771   1.706   7.904   6.877 -0.1139 -1.2426 -0.8390
13110SOL    HW240772   1.629   7.977   6.986  1.9692  1.1797 -0.9117
13111SOL     OW40773   6.618   1.490   3.285 -0.2103  0.1010 -0.6401
13111SOL    HW140774   6.535   1.536   3.274 -0.5108 -0.5809 -1.3258
13111SOL    HW240775   6.645   1.510   3.375 -1.7163 -0.6505  0.0077
13112SOL     OW40776   1.875   3.426   8.342  0.3495  0.3417  0.0078
13112SOL    HW140777   1.921   3.342   8.342 -0.2634 -0.0558 -1.8045
13112SOL    HW240778   1.834   3.432   8.428 -1.0415 -2.0754 -0.4108
13113SOL     OW40779   7.248   4.692   7.214 -0.3693 -0.6301 -0.1789
13113SOL    HW140780   7.324   4.749   7.207  0.4526 -1.6480  0.1750
13113SOL    HW240781   7.218   4.701   7.305  0.1436 -1.2177  0.0551
13114SOL     OW40782   0.674   5.327  11.360  0.2920 -0.3379  0.5699
13114SOL    HW140783   0.732   5.280  11.421 -1.4095 -2.0093  0.9975
13114SOL    HW240784   0.597   5.349  11.413  0.4037  1.7404 -0.0163
13115SOL     OW40785   3.630   5.831   7.971  0.2567  0.0171  0.4855
13115SOL    HW140786   3.707   5.791   7.929  1.2615  0.3053  1.9915
13115SOL    HW240787   3.617   5.780   8.050 -1.0821  0.0337  0.2999
13116SOL     OW40788   6.084   3.367   7.338 -0.1294 -0.3526 -0.3195
13116SOL    HW140789   6.118   3.291   7.290 -0.3640  0.0027 -1.0601
13116SOL    HW240790   6.053   3.330   7.421 -2.4740 -1.5351 -1.6023
13117SOL     OW40791   4.921   5.539  11.459  0.2078  0.2327 -0.2020
13117SOL    HW140792   4.959   5.624  11.437 -0.5251  0.3838 -0.9194
13117SOL    HW240793   4.838   5.536  11.412  0.9347 -1.5240 -1.5020
13118SOL     OW40794   0.890   7.885   8.323 -0.4317 -0.6142  0.2525
13118SOL    HW140795   0.957   7.818   8.313  1.0170  1.0014 -1.8426
13118SOL    HW240796   0.939   7.966   8.336 -1.8509  0.7330 -1.9582
13119SOL     OW40797   5.444   7.170   4.013 -0.2365  0.0212 -0.0690
13119SOL    HW140798   5.413   7.093   3.966  1.1667 -0.2905 -0.5260
13119SOL    HW240799   5.456   7.237   3.945 -0.9030  0.4808  0.2500
13120SOL     OW40800   0.235   5.051  10.067 -0.1051  0.1628  0.5235
13120SOL    HW140801   0.232   4.956  10.066  0.5043  0.1049  1.8632
13120SOL    HW240802   0.328   5.073  10.058 -0.2326  0.6354  0.2815
13121SOL     OW40803   0.483   4.576  10.325  0.0854  0.0164 -0.3228
13121SOL    HW140804   0.483   4.603  10.417  0.8764  1.1465 -0.6343
13121SOL    HW240805   0.459   4.483  10.328 -2.2228  0.5466  0.8350
13122SOL     OW40806   6.426   4.886  11.519  0.8368 -0.3511 -0.5639
13122SOL    HW140807   6.363   4.913  11.451  0.3461 -1.8201 -0.7236
13122SOL    HW240808   6.509   4.926  11.492  0.0357  1.5209 -0.4190
13123SOL     OW40809   4.542   1.121   2.474 -0.4504 -0.1658  0.2021
13123SOL    HW140810   4.521   1.175   2.398  0.9351 -0.0935 -0.1574
13123SOL    HW240811   4.496   1.039   2.459  1.3993 -0.9360 -1.8045
13124SOL     OW40812   2.753   2.389   4.141  0.2849 -0.1210 -0.4192
13124SOL    HW140813   2.738   2.356   4.052  0.0477  0.2644 -0.5255
13124SOL    HW240814   2.670   2.431   4.164 -0.4516 -2.1119  0.8340
13125SOL     OW40815   6.040   5.606   9.327 -0.3140 -0.4925  0.0878
13125SOL    HW140816   6.096   5.568   9.394  0.2883 -0.1779 -0.2281
13125SOL    HW240817   6.050   5.549   9.251 -0.8705 -0.7569  0.2020
13126SOL     OW40818   4.566   0.124   6.951 -0.0834  0.1431 -0.1249
13126SOL    HW140819   4.597   0.034   6.942  3.2546  1.2783 -1.4517
13126SOL    HW240820   4.510   0.138   6.874 -0.8154 -0.8272  0.2142
13127SOL     OW40821   1.612   4.738   6.537 -0.5283  0.3528 -0.1630
13127SOL    HW140822   1.581   4.780   6.618 -2.0969  2.1909 -1.6358
13127SOL    HW240823   1.702   4.771   6.526 -0.6037  0.7518  0.3775
13128SOL     OW40824   6.236   0.495   6.518  0.5485 -0.1123 -0.2158
13128SOL    HW140825   6.237   0.588   6.539  1.5198 -0.5228  1.7553
13128SOL    HW240826   6.184   0.490   6.437 -0.8306  1.9507  0.4400
13129SOL     OW40827   7.140   5.077   5.649  0.6197 -0.5939 -0.8003
13129SOL    HW140828   7.211   5.140   5.635  0.1797  0.3085  0.6964
13129SOL    HW240829   7.061   5.126   5.627  0.2344 -0.4179  0.8483
13130SOL     OW40830   0.641   4.521   4.283 -0.3173 -0.3722  0.0397
13130SOL    HW140831   0.649   4.486   4.372 -0.1693  1.5555  0.8225
13130SOL    HW240832   0.684   4.606   4.286 -0.6082 -0.1147 -1.8080
13131SOL     OW40833   3.394   7.241   7.392  0.4602 -0.1528 -0.2743
13131SOL    HW140834   3.442   7.322   7.375  0.5519 -0.0081  0.6442
13131SOL    HW240835   3.430   7.208   7.474  0.6502 -1.3038 -0.7928
13132SOL     OW40836   2.958   6.386   3.108 -0.8241  0.0448 -0.1081
13132SOL    HW140837   2.945   6.475   3.140  1.7046  0.3840  0.1952
13132SOL    HW240838   3.033   6.353   3.157 -0.4219 -1.5115 -1.6437
13133SOL     OW40839   7.429   4.760   0.989  0.0798  0.4014 -0.1089
13133SOL    HW140840   7.426   4.769   1.084  0.3752  0.1912 -0.0793
13133SOL    HW240841   7.361   4.819   0.957 -1.4533 -1.0198  0.3375
13134SOL     OW40842   5.864   0.793   6.356  0.5694 -0.4298  0.3123
13134SOL    HW140843   5.856   0.886   6.337  3.4150 -0.0411  0.6294
13134SOL    HW240844   5.897   0.754   6.275 -3.0316 -1.7248 -0.7073
13135SOL     OW40845   7.007   2.241   9.515  0.2959  0.4329 -0.2403
13135SOL    HW140846   7.048   2.308   9.569  3.7949 -0.9859 -0.8950
13135SOL    HW240847   7.001   2.281   9.428  2.6525 -0.0709 -0.7027
13136SOL     OW40848   5.801   6.661  11.110  0.6921  0.2774  0.1322
13136SOL    HW140849   5.757   6.681  11.193 -0.8970 -0.1258 -0.5685
13136SOL    HW240850   5.880   6.715  11.111  1.1007 -0.2523  2.2110
13137SOL     OW40851   4.650   5.462   4.538 -0.2541 -0.4287  0.1413
13137SOL    HW140852   4.739   5.430   4.543  0.2346  0.6369 -1.0341
13137SOL    HW240853   4.658   5.549   4.498 -1.8027 -0.2713  0.0994
13138SOL     OW40854   6.208   7.744   6.907  0.1556 -0.6260 -0.0395
13138SOL    HW140855   6.249   7.794   6.837  0.7742  1.1910  1.5188
13138SOL    HW240856   6.254   7.661   6.908 -0.0060 -0.7774 -1.8772
13139SOL     OW40857   0.868   6.638   6.370 -0.0813 -0.5677 -0.2812
13139SOL    HW140858   0.802   6.703   6.347  0.1430 -0.7569 -1.5457
13139SOL    HW240859   0.827   6.554   6.353  0.4270 -0.6890 -0.9749
13140SOL     OW40860   2.112   5.723   0.124  0.2348 -0.5358  0.1186
13140SOL    HW140861   2.165   5.643   0.129  0.2784 -0.4502  1.2622
13140SOL    HW240862   2.069   5.729   0.209 -0.4804  0.1841 -0.2796
13141SOL     OW40863   6.016   4.074  10.025 -0.2882  0.1772  0.4174
13141SOL    HW140864   5.941   4.079   9.966 -0.1001  0.2999  0.1817
13141SOL    HW240865   5.979   4.057  10.111 -1.0170  4.5356  1.1938
13142SOL     OW40866   7.436   7.010   3.907 -0.5457 -0.0376 -0.0945
13142SOL    HW140867   7.444   7.096   3.864  0.0211 -0.0042  0.0632
13142SOL    HW240868   7.381   6.959   3.848 -0.5148  0.2947 -0.4179
13143SOL     OW40869   4.427   0.049   4.013 -0.5808  0.2524  0.4585
13143SOL    HW140870   4.501   0.022   3.960  0.8499  1.3330  1.8245
13143SOL    HW240871   4.405  -0.028   4.065 -0.8762 -0.2772 -0.4344
13144SOL     OW40872   7.782   3.217   9.640 -0.2475  0.0643 -0.4051
13144SOL    HW140873   7.696   3.220   9.682 -0.9226  0.9193 -1.7573
13144SOL    HW240874   7.762   3.207   9.547  1.1336  0.3122 -0.7521
13145SOL     OW40875   5.775   4.799  10.201  0.0994 -0.0235 -0.3064
13145SOL    HW140876   5.740   4.801  10.112  0.9615  1.1829 -0.6453
13145SOL    HW240877   5.705   4.762  10.254 -0.0264 -1.8246 -1.6501
13146SOL     OW40878   6.856   6.570   4.183 -1.1647  0.1767 -0.4160
13146SOL    HW140879   6.836   6.518   4.105 -1.5636  0.3464 -0.4255
13146SOL    HW240880   6.952   6.574   4.184 -1.1260 -0.5700 -0.4023
13147SOL     OW40881   5.038   2.133   2.693 -0.1474 -0.1964 -0.1167
13147SOL    HW140882   4.963   2.086   2.729  0.7016 -1.6577 -0.1949
13147SOL    HW240883   5.110   2.070   2.696  1.0381  1.1024 -0.2416
13148SOL     OW40884   0.085   4.074   5.533 -0.3919 -0.1885 -0.4292
13148SOL    HW140885   0.044   4.088   5.619  1.8880  1.7366  0.4647
13148SOL    HW240886   0.083   3.980   5.521 -3.4912 -0.3335  0.2708
13149SOL     OW40887   1.818   7.940   1.278  0.3410  0.2853  0.0285
13149SOL    HW140888   1.783   7.995   1.349  0.5619 -0.6086  0.8551
13149SOL    HW240889   1.913   7.948   1.287  0.3678  0.3876 -0.3515
13150SOL     OW40890   1.988   3.197   8.419  0.1137 -0.1166 -0.1625
13150SOL    HW140891   2.075   3.167   8.394 -0.2632 -1.8182  0.4809
13150SOL    HW240892   1.980   3.176   8.512 -1.1818 -0.4717 -0.3339
13151SOL     OW40893   2.815   0.287   7.380 -0.0980 -0.5210  0.7179
13151SOL    HW140894   2.828   0.276   7.286 -3.2434  0.7732  0.0274
13151SOL    HW240895   2.796   0.199   7.413  3.3268 -1.4109  0.7197
13152SOL     OW40896   2.700   4.500  10.864  0.0041 -0.4904  0.1878
13152SOL    HW140897   2.718   4.567  10.930  0.3406  1.4801 -1.7827
13152SOL    HW240898   2.606   4.511  10.845  0.1226 -0.3550 -0.3416
13153SOL     OW40899   3.642   5.617   3.979  0.1988 -0.5322  0.1087
13153SOL    HW140900   3.571   5.678   4.000  0.5993 -0.4771  1.3654
13153SOL    HW240901   3.641   5.611   3.883 -1.1451 -0.1181  0.0789
13154SOL     OW40902   3.927   4.071  10.638 -0.3881 -0.5441  0.0488
13154SOL    HW140903   3.889   3.987  10.665 -1.5130 -0.1249 -0.2002
13154SOL    HW240904   3.981   4.049  10.562 -2.4426 -0.7447 -1.4366
13155SOL     OW40905   6.162   6.667   2.436  0.1419 -0.2339 -0.4529
13155SOL    HW140906   6.085   6.719   2.412  0.1485 -0.1866 -0.3738
13155SOL    HW240907   6.184   6.618   2.357 -0.2597 -0.6073 -0.3357
13156SOL     OW40908   3.060   6.835   1.560 -0.2591  0.1522  0.4701
13156SOL    HW140909   3.019   6.749   1.567  0.5806 -0.1841  1.5948
13156SOL    HW240910   3.132   6.823   1.499  0.8523 -0.3738  1.8390
13157SOL     OW40911   4.063   5.111   3.891 -0.4191 -0.2504  0.1703
13157SOL    HW140912   4.050   5.105   3.986  1.8392 -1.6878  0.4662
13157SOL    HW240913   4.155   5.135   3.881 -0.5535 -0.3709 -1.6837
13158SOL     OW40914   3.744   3.552   4.613  0.1920 -0.1712  0.2537
13158SOL    HW140915   3.831   3.557   4.654  0.1033  0.3970  0.3897
13158SOL    HW240916   3.710   3.467   4.641  0.8240 -0.5343 -0.0498
13159SOL     OW40917   3.240   1.707   8.845 -0.4373  0.1239 -0.0187
13159SOL    HW140918   3.284   1.762   8.910  1.1645 -0.2340 -0.7433
13159SOL    HW240919   3.287   1.623   8.849  0.6302  0.4950 -2.5014
13160SOL     OW40920   4.059   5.196   3.235  0.6736 -0.1854  0.1061
13160SOL    HW140921   4.128   5.164   3.295 -0.5728  1.7040  2.7555
13160SOL    HW240922   4.103   5.203   3.150  3.5430  0.0805  1.4657
13161SOL     OW40923   6.876   4.017   6.564 -0.1524  0.3660  0.2600
13161SOL    HW140924   6.908   3.952   6.627 -0.6602  0.9682  1.1813
13161SOL    HW240925   6.860   3.968   6.484 -0.5257 -0.6542  0.9340
13162SOL     OW40926   7.220   3.025  12.193  0.1143 -0.5017 -0.1940
13162SOL    HW140927   7.186   3.084  12.127 -0.7576  1.4053  1.8240
13162SOL    HW240928   7.203   3.069  12.276  0.6326 -3.0087  1.3714
13163SOL     OW40929   1.034   6.436  10.742 -0.0649 -0.3282 -0.5097
13163SOL    HW140930   1.069   6.391  10.819  0.9957  1.8624  0.3735
13163SOL    HW240931   1.005   6.521  10.775 -1.5852 -0.1371 -2.1753
13164SOL     OW40932   5.279   0.836   7.166  0.3776 -0.2685  0.1460
13164SOL    HW140933   5.343   0.829   7.237 -0.1606 -0.3853  0.6321
13164SOL    HW240934   5.263   0.746   7.139  2.3552 -0.1256 -1.7849
13165SOL     OW40935   0.798   6.910   8.872  0.3041 -0.3109 -0.8194
13165SOL    HW140936   0.787   6.828   8.919  1.0149  0.1051  0.0920
13165SOL    HW240937   0.811   6.976   8.940 -0.9404  0.6809 -1.5104
13166SOL     OW40938   0.158   2.591   1.014 -0.3496 -0.4643  0.1359
13166SOL    HW140939   0.219   2.593   0.941 -1.1070 -1.7741 -0.5671
13166SOL    HW240940   0.193   2.524   1.073 -0.6044 -0.5436  0.1971
13167SOL     OW40941   7.489   0.974   4.810 -0.5606  0.2305  0.1292
13167SOL    HW140942   7.421   0.987   4.877  0.7540  2.2918  1.1560
13167SOL    HW240943   7.492   1.057   4.762  2.3895  0.9122  1.2809
13168SOL     OW40944   3.232   6.810   7.340 -0.6911  0.1297  0.2156
13168SOL    HW140945   3.267   6.821   7.429  0.9710 -0.5922 -0.3049
13168SOL    HW240946   3.171   6.736   7.348 -1.0729  0.5123  0.8868
13169SOL     OW40947   3.127   1.338  12.387 -0.1863 -0.0399  0.2612
13169SOL    HW140948   3.206   1.284  12.380  0.7039  1.1442  0.7831
13169SOL    HW240949   3.098   1.326  12.477  1.0732  1.7055  0.9546
13170SOL     OW40950   1.306   0.405   0.138  0.5987  0.3032  0.0962
13170SOL    HW140951   1.335   0.316   0.116 -1.5486 -0.1360 -1.2488
13170SOL    HW240952   1.281   0.400   0.230 -1.1493 -1.0251 -0.3978
13171SOL     OW40953   7.464   7.026  10.944  0.2648  0.0241 -0.5502
13171SOL    HW140954   7.491   7.109  10.905  0.0703  0.6299  0.5699
13171SOL    HW240955   7.519   7.017  11.022 -0.6753 -0.1970  0.1130
13172SOL     OW40956   3.926   2.530   7.267 -0.1906  0.4216  0.1001
13172SOL    HW140957   3.875   2.604   7.235 -1.2125 -0.3954 -0.2021
13172SOL    HW240958   3.907   2.459   7.206 -1.1037 -0.7817  1.6846
13173SOL     OW40959   5.874   7.516   3.431 -0.1836  0.3713  0.0323
13173SOL    HW140960   5.822   7.579   3.381 -1.4897  0.2402  1.1508
13173SOL    HW240961   5.814   7.442   3.446  0.1536  0.4108  1.7567
13174SOL     OW40962   7.139   4.964   4.620 -0.1371 -0.9590  0.4732
13174SOL    HW140963   7.098   5.033   4.672 -1.5205 -1.7187  0.4198
13174SOL    HW240964   7.211   4.932   4.675  1.2325  1.1906  0.0701
13175SOL     OW40965   6.945   6.757  12.050  0.4290 -0.2009 -0.3399
13175SOL    HW140966   6.908   6.764  11.962  1.2292 -0.4153 -0.7055
13175SOL    HW240967   7.040   6.755  12.036  0.5569 -0.5568  0.5061
13176SOL     OW40968   4.867   4.054  12.152 -0.7897  0.1595  0.1108
13176SOL    HW140969   4.842   4.146  12.149  0.3231  0.4680 -0.4160
13176SOL    HW240970   4.798   4.012  12.203 -1.5116  1.2151  0.0416
13177SOL     OW40971   6.793   5.867   7.222 -0.6114  0.5144 -0.1237
13177SOL    HW140972   6.743   5.917   7.287  0.8577  2.5656 -0.4847
13177SOL    HW240973   6.850   5.811   7.274 -0.6081  0.9348  0.3353
13178SOL     OW40974   2.941   7.607   3.642 -0.7282  0.4155  0.6438
13178SOL    HW140975   2.872   7.655   3.595 -0.5443  1.8595  1.7789
13178SOL    HW240976   3.016   7.608   3.582 -0.4512  2.3445  0.9802
13179SOL     OW40977   7.570   7.573   7.240 -0.4552 -0.0819 -0.2004
13179SOL    HW140978   7.603   7.511   7.306  0.9506  1.3925  0.5559
13179SOL    HW240979   7.645   7.627   7.218 -1.8259  1.9895 -0.1015
13180SOL     OW40980   4.481   1.800   6.000 -0.0309 -0.1198 -0.3839
13180SOL    HW140981   4.529   1.839   6.074 -0.3844  0.5224 -0.4864
13180SOL    HW240982   4.500   1.706   6.006  0.1734 -0.0374  0.3515
13181SOL     OW40983   3.743   6.271   8.207 -0.1473  0.0995  0.3718
13181SOL    HW140984   3.781   6.324   8.138 -0.7328 -0.3264 -0.2837
13181SOL    HW240985   3.650   6.292   8.205 -0.3166 -0.6389  0.3839
13182SOL     OW40986   2.661   3.474   2.227 -0.4461 -0.1523 -0.3042
13182SOL    HW140987   2.656   3.490   2.133 -2.0310  0.1468 -0.1950
13182SOL    HW240988   2.652   3.561   2.266 -1.3181 -0.4276  0.1368
13183SOL     OW40989   3.829   6.152   8.442 -0.3856  0.3165  0.4895
13183SOL    HW140990   3.763   6.188   8.501 -0.5663 -0.1642  0.5858
13183SOL    HW240991   3.803   6.182   8.355  0.2336  1.5606  0.7113
13184SOL     OW40992   1.675   0.852   1.202 -0.4055  0.6381 -0.3584
13184SOL    HW140993   1.767   0.851   1.226 -0.2959 -1.9494 -0.6179
13184SOL    HW240994   1.631   0.892   1.277  0.8687  1.7077 -0.1416
13185SOL     OW40995   4.960   0.355   9.526  0.0156 -0.6044  0.2792
13185SOL    HW140996   4.913   0.433   9.496 -1.4927 -1.2044  0.9873
13185SOL    HW240997   4.965   0.299   9.449 -0.7540 -0.6791  0.2785
13186SOL     OW40998   2.808   0.990   7.017 -0.0503  0.0408 -0.0528
13186SOL    HW140999   2.898   1.022   7.016 -0.3610  0.9462 -1.1217
13186SOL    HW241000   2.815   0.896   7.005  0.7388  0.1683 -0.6546
13187SOL     OW41001   2.280   0.561   7.711  0.5921 -0.0213  0.0447
13187SOL    HW141002   2.251   0.618   7.783  0.0823  1.0009 -0.9411
13187SOL    HW241003   2.266   0.472   7.743  0.0994  0.4209  1.0993
13188SOL     OW41004   7.118   2.069  10.519 -0.0937  0.0080 -0.0239
13188SOL    HW141005   7.156   2.000  10.465  1.0368  0.6792 -0.1326
13188SOL    HW241006   7.114   2.145  10.461 -2.2159 -0.1855 -0.1919
13189SOL     OW41007   4.752   5.613   9.079  0.2303  0.7796 -0.2401
13189SOL    HW141008   4.754   5.664   8.998  0.9197  0.6500 -0.3121
13189SOL    HW241009   4.742   5.522   9.051 -1.5148  0.8926 -0.0936
13190SOL     OW41010   2.352   5.736   7.487  0.1435  0.2002  0.1328
13190SOL    HW141011   2.328   5.646   7.508 -1.9370  1.0885  1.9182
13190SOL    HW241012   2.284   5.766   7.428  0.1944  0.9409  0.4373
13191SOL     OW41013   2.709   1.938   9.392  0.0793 -0.1605  0.3887
13191SOL    HW141014   2.724   1.958   9.300  0.0124  0.4552  0.5094
13191SOL    HW241015   2.772   1.992   9.439 -1.0975  0.8983  0.7969
13192SOL     OW41016   7.597   2.276   4.356  0.7599 -0.2357 -0.2174
13192SOL    HW141017   7.676   2.288   4.409  1.6422 -1.9046 -1.0757
13192SOL    HW241018   7.570   2.186   4.371 -1.6908  0.5899  0.8907
13193SOL     OW41019   4.356   5.863   9.890 -0.3087  0.2162 -0.9574
13193SOL    HW141020   4.295   5.870   9.817  0.6376 -0.8850 -1.9011
13193SOL    HW241021   4.305   5.822   9.960 -1.0764  0.7673 -1.1793
13194SOL     OW41022   1.594   0.299   4.578  0.3591 -0.0296  0.5208
13194SOL    HW141023   1.499   0.291   4.580  0.1596  0.2284 -2.6394
13194SOL    HW241024   1.626   0.213   4.603 -0.7457 -0.4567  0.5084
13195SOL     OW41025   3.803   1.897   8.829 -0.1792 -0.1554  0.7411
13195SOL    HW141026   3.756   1.818   8.857  0.5682  0.0941  2.8936
13195SOL    HW241027   3.755   1.969   8.870 -0.0673  0.4079 -0.1075
13196SOL     OW41028   6.869   0.197   8.824 -0.8273  0.1959  0.1626
13196SOL    HW141029   6.961   0.214   8.805 -0.1546 -1.0095  2.1666
13196SOL    HW241030   6.826   0.207   8.739  1.2354  0.0691 -0.9694
13197SOL     OW41031   6.338   5.534   0.448  0.4497  0.2300  0.6713
13197SOL    HW141032   6.432   5.529   0.465  0.3547 -2.9282  0.7954
13197SOL    HW241033   6.327   5.492   0.363 -0.7696  1.5261  0.1621
13198SOL     OW41034   1.055   2.215   7.558  0.1065 -0.6435 -0.0444
13198SOL    HW141035   1.099   2.242   7.639  0.0063  0.5240 -0.3562
13198SOL    HW241036   1.116   2.154   7.517  0.5353 -0.5973  0.5141
13199SOL     OW41037   7.046   7.702   0.678  0.0163  0.4733 -0.7749
13199SOL    HW141038   7.054   7.768   0.610 -4.2204  0.8301 -1.1902
13199SOL    HW241039   7.077   7.621   0.637  1.5967  1.4432 -1.5746
13200SOL     OW41040   0.479   5.313   8.511  0.3396 -0.0509  0.3478
13200SOL    HW141041   0.413   5.337   8.446 -0.2969 -2.0906  0.1804
13200SOL    HW241042   0.545   5.264   8.461  0.1345 -1.1432  1.1260
13201SOL     OW41043   3.401   0.639   1.385  0.5658 -0.6306 -0.1582
13201SOL    HW141044   3.406   0.554   1.427 -0.7049 -0.1981  0.9680
13201SOL    HW241045   3.487   0.679   1.399  0.4259 -0.8137  1.3967
13202SOL     OW41046   5.398   0.451   9.524 -0.1254  0.6623  0.2357
13202SOL    HW141047   5.447   0.522   9.566 -1.6534  1.5336  0.6675
13202SOL    HW241048   5.322   0.495   9.485 -0.9746 -0.6998  0.2879
13203SOL     OW41049   1.794   2.434   7.605  0.0641  0.0004  0.3163
13203SOL    HW141050   1.705   2.421   7.573 -0.2438  0.4059  0.9795
13203SOL    HW241051   1.839   2.481   7.534 -0.6996  1.1747  0.5826
13204SOL     OW41052   7.305   4.102   6.414  0.2239 -0.1642  0.1140
13204SOL    HW141053   7.337   4.131   6.328 -0.6587 -1.7606 -0.7991
13204SOL    HW241054   7.226   4.154   6.429 -0.5177 -0.9805 -0.8196
13205SOL     OW41055   0.782   1.321   0.804  0.1805  0.1675 -0.2563
13205SOL    HW141056   0.777   1.305   0.709  0.0801 -1.0309 -0.0662
13205SOL    HW241057   0.733   1.249   0.843  0.9778  0.1545  0.7511
13206SOL     OW41058   6.740   5.553   4.648 -0.1616 -1.1102 -0.2765
13206SOL    HW141059   6.779   5.540   4.561  2.3395 -1.4176  0.7976
13206SOL    HW241060   6.774   5.480   4.700 -0.0754  0.1051  1.4315
13207SOL     OW41061   7.869   1.229   0.417  0.1326  0.3646 -0.3292
13207SOL    HW141062   7.882   1.240   0.323  3.3388 -1.2089 -0.2033
13207SOL    HW241063   7.811   1.153   0.425 -0.5393  0.7946 -1.0108
13208SOL     OW41064   6.318   6.069   5.832  0.5359  0.2889  0.0949
13208SOL    HW141065   6.300   6.027   5.748 -0.9409  2.9246 -1.0299
13208SOL    HW241066   6.377   6.141   5.811  0.6585  0.5952  1.4168
13209SOL     OW41067   6.710   4.411   1.942 -0.0728 -0.8577  0.4989
13209SOL    HW141068   6.780   4.425   1.878  0.8259  0.8110  1.7710
13209SOL    HW241069   6.659   4.338   1.906 -0.5407  0.9581 -2.9028
13210SOL     OW41070   0.859   0.831   8.060  0.2286  0.0188  0.1517
13210SOL    HW141071   0.870   0.911   8.112  0.2673  0.4766 -0.5550
13210SOL    HW241072   0.930   0.834   7.996 -2.2347  1.6816 -2.7544
13211SOL     OW41073   7.228   6.953  10.146  0.1830 -0.6716 -0.3226
13211SOL    HW141074   7.180   6.912  10.074 -0.4179 -0.2447 -0.1725
13211SOL    HW241075   7.259   7.036  10.111 -0.9475 -0.0109  0.1892
13212SOL     OW41076   7.822   6.159   5.612 -0.2743  0.0388 -0.7294
13212SOL    HW141077   7.875   6.194   5.541  0.1245  1.1454  0.0860
13212SOL    HW241078   7.818   6.065   5.594 -0.4928  0.3276 -2.3973
13213SOL     OW41079   5.317   0.051  12.138  0.2143 -0.3115 -0.0475
13213SOL    HW141080   5.340   0.132  12.091  0.1091 -1.0415 -1.4193
13213SOL    HW241081   5.268   0.080  12.214 -0.5562  0.8825 -0.9655
13214SOL     OW41082   3.401   0.189  10.609 -0.0697  0.5375  0.0467
13214SOL    HW141083   3.473   0.224  10.661 -0.4549 -0.6598  1.4828
13214SOL    HW241084   3.444   0.138  10.540  0.5094 -0.7676  1.3140
13215SOL     OW41085   1.033   6.647   9.057 -0.2623 -0.2364 -1.1290
13215SOL    HW141086   1.037   6.642   9.153 -0.8537 -0.3556 -1.1030
13215SOL    HW241087   0.941   6.628   9.037  0.1999 -1.8719 -1.8353
13216SOL     OW41088   7.555   3.440   5.737  0.6862  0.0313 -0.2083
13216SOL    HW141089   7.500   3.380   5.786 -0.4443  0.2128 -1.1980
13216SOL    HW241090   7.537   3.419   5.645  3.1034 -0.6357 -0.5789
13217SOL     OW41091   1.364   1.430   6.970  0.2459 -0.5500 -0.5850
13217SOL    HW141092   1.424   1.496   7.006  0.9890 -1.5716  0.0981
13217SOL    HW241093   1.342   1.374   7.045 -0.6214 -0.8972 -1.0875
13218SOL     OW41094   4.194   7.023  10.576 -0.0723  0.1222  0.8667
13218SOL    HW141095   4.210   7.044  10.484 -2.2122  0.9719  0.6393
13218SOL    HW241096   4.170   7.106  10.616  0.7557 -0.2537  2.2123
13219SOL     OW41097   5.483   5.896   9.467  0.2866  0.2824  0.2738
13219SOL    HW141098   5.471   5.803   9.446  1.1848  0.1363  0.3701
13219SOL    HW241099   5.446   5.905   9.555 -2.8087  0.7456 -0.9277
13220SOL     OW41100   5.854   4.774   7.961 -0.2182 -0.1354 -0.4462
13220SOL    HW141101   5.852   4.729   7.876 -1.2181 -2.1436  0.5739
13220SOL    HW241102   5.773   4.747   8.004  0.6837  0.1330  1.4973
13221SOL     OW41103   0.724   6.873  11.492  0.1826 -0.1074  0.0703
13221SOL    HW141104   0.643   6.823  11.485  0.8926 -1.3828  0.6696
13221SOL    HW241105   0.794   6.809  11.480  1.1321  1.2268 -2.0728
13222SOL     OW41106   7.068   0.039   1.921 -0.0115 -0.2380  0.4381
13222SOL    HW141107   7.135   0.031   1.988  1.3791  0.1234 -0.8341
13222SOL    HW241108   7.059  -0.049   1.884 -0.2546 -0.2863  0.6075
13223SOL     OW41109   1.112   0.153   6.667  0.4315  0.3805 -0.0942
13223SOL    HW141110   1.056   0.217   6.710 -0.6764 -0.6751  0.0785
13223SOL    HW241111   1.135   0.193   6.583 -1.3797  0.4500 -0.5907
13224SOL     OW41112   1.353   1.015   0.094  0.1294  0.2818  0.1202
13224SOL    HW141113   1.425   0.953   0.083  0.4779  0.5036  1.0426
13224SOL    HW241114   1.294   0.974   0.157  0.8095  1.2297  1.4381
13225SOL     OW41115   7.272   2.369   0.852  0.4241 -0.1545  0.1977
13225SOL    HW141116   7.310   2.287   0.821  1.3798  0.0796  0.7139
13225SOL    HW241117   7.299   2.375   0.944 -0.1001  0.4755  0.3206
13226SOL     OW41118   3.699   5.289   5.968  0.0093  0.0607 -0.0025
13226SOL    HW141119   3.677   5.374   6.005  2.1579 -0.1763  2.0017
13226SOL    HW241120   3.753   5.309   5.891 -0.8100  0.4807 -0.4897
13227SOL     OW41121   1.576   3.727   3.623  0.2158 -0.0623 -0.0398
13227SOL    HW141122   1.642   3.771   3.570 -0.3521 -0.8340 -1.4183
13227SOL    HW241123   1.503   3.712   3.564 -1.2015  0.7119  1.4359
13228SOL     OW41124   0.919   2.505   5.234  0.1154  0.4432 -0.0278
13228SOL    HW141125   0.937   2.413   5.252  0.2794  0.2579 -1.0390
13228SOL    HW241126   0.986   2.553   5.283  1.1627 -0.0740 -0.8854
13229SOL     OW41127   4.458   6.636  11.654  0.1974  0.4192 -0.2716
13229SOL    HW141128   4.509   6.565  11.694 -1.3412  0.4921  2.0228
13229SOL    HW241129   4.524   6.692  11.613  1.7983 -0.4724  0.9396
13230SOL     OW41130   1.463   1.292   7.916 -0.4722 -0.3571 -0.1642
13230SOL    HW141131   1.448   1.271   8.009  0.3549 -0.8423 -0.1379
13230SOL    HW241132   1.384   1.261   7.872 -0.1993 -1.5785  0.1729
13231SOL     OW41133   0.590   5.643   0.422  0.3091 -0.1940  0.2887
13231SOL    HW141134   0.566   5.627   0.331  0.8474  0.1421  0.0797
13231SOL    HW241135   0.667   5.588   0.437  0.1481 -0.3448  0.5818
13232SOL     OW41136   6.457   5.757   9.650  0.1794 -0.0718 -0.4832
13232SOL    HW141137   6.419   5.833   9.694 -1.8447 -1.6848  0.7146
13232SOL    HW241138   6.408   5.749   9.568  2.9284  2.0226 -2.5493
13233SOL     OW41139   6.564   0.256  12.201  0.2065  0.1713 -0.1161
13233SOL    HW141140   6.607   0.277  12.118  0.0565  0.0636 -0.2214
13233SOL    HW241141   6.612   0.307  12.267 -1.6465  2.8016 -0.6286
13234SOL     OW41142   0.821   5.586  11.333  0.3864 -0.0355 -0.0698
13234SOL    HW141143   0.790   5.511  11.282 -2.5254  1.9255 -1.4948
13234SOL    HW241144   0.787   5.570  11.421 -0.0925 -0.4941 -0.3273
13235SOL     OW41145   4.207   3.101   9.425  0.2120 -0.1018  0.2173
13235SOL    HW141146   4.116   3.127   9.438  0.3797  0.3403  0.5603
13235SOL    HW241147   4.257   3.181   9.442  0.7363 -0.6085  1.1371
13236SOL     OW41148   0.219   7.773   2.609  0.0318  0.0884  0.0094
13236SOL    HW141149   0.303   7.802   2.575 -0.8009  1.0284 -1.3614
13236SOL    HW241150   0.227   7.678   2.619  1.4069  0.2330  0.4403
13237SOL     OW41151   7.301   2.731  11.411  0.2913 -0.5545  0.7775
13237SOL    HW141152   7.390   2.696  11.400  0.3941  0.1431 -0.9823
13237SOL    HW241153   7.290   2.790  11.337 -1.9751 -1.3036  0.4506
13238SOL     OW41154   3.593   6.747   8.241 -0.4221  0.0993  0.1248
13238SOL    HW141155   3.573   6.702   8.160  0.3374 -0.2953  0.1457
13238SOL    HW241156   3.577   6.682   8.310 -0.3966  0.2142  0.2401
13239SOL     OW41157   6.029   0.035   4.564 -0.6182  0.2243  0.3900
13239SOL    HW141158   5.978  -0.044   4.544 -0.2360  0.7716 -3.4438
13239SOL    HW241159   6.120   0.007   4.556 -0.4794  0.9816 -0.8370
13240SOL     OW41160   5.990   4.184   9.140 -0.1911  0.1890  0.3318
13240SOL    HW141161   6.081   4.208   9.158  0.3076 -1.0529 -0.4250
13240SOL    HW241162   5.987   4.168   9.046 -1.5009  1.3971  0.1362
13241SOL     OW41163   2.299   2.963   0.695  0.7594 -0.0587 -0.2546
13241SOL    HW141164   2.251   3.006   0.766 -0.1105 -0.5707 -0.5070
13241SOL    HW241165   2.391   2.966   0.722  0.4210 -0.4351  0.9961
13242SOL     OW41166   4.681   5.361   8.287 -0.0270  0.6940  0.4555
13242SOL    HW141167   4.735   5.283   8.297 -0.2438  0.5947  0.8681
13242SOL    HW241168   4.608   5.347   8.347  0.1705  1.4182  0.8769
13243SOL     OW41169   5.847   4.517   4.245 -0.2624  0.3746 -0.2089
13243SOL    HW141170   5.818   4.569   4.169  0.5832  1.4974  0.2070
13243SOL    HW241171   5.918   4.463   4.212  0.0416  0.7932 -0.2390
13244SOL     OW41172   5.439   7.365  11.644 -0.7540 -0.4055 -0.4685
13244SOL    HW141173   5.476   7.420  11.713  0.3327  0.5620 -1.7582
13244SOL    HW241174   5.445   7.276  11.678 -2.1011  0.1935  1.4750
13245SOL     OW41175   2.932   2.171   1.358  0.6437 -0.3499 -0.0368
13245SOL    HW141176   2.993   2.150   1.428  0.6687  1.1834  0.4469
13245SOL    HW241177   2.849   2.131   1.385  1.3852 -2.4561 -0.7087
13246SOL     OW41178   2.884   1.345  11.334  0.1836  0.6147 -0.3930
13246SOL    HW141179   2.822   1.398  11.385  1.1508  0.6556  0.7973
13246SOL    HW241180   2.950   1.408  11.304  0.1863  0.4191 -0.8064
13247SOL     OW41181   1.279   2.878   9.316  0.0644  0.1656  0.1020
13247SOL    HW141182   1.282   2.946   9.249  0.8700 -0.3565 -0.4051
13247SOL    HW241183   1.306   2.922   9.397  2.6962  0.0414 -0.6043
13248SOL     OW41184   1.840   2.277   1.029  0.0815 -0.2633 -0.5031
13248SOL    HW141185   1.918   2.326   1.054 -0.9030  1.3426 -0.4240
13248SOL    HW241186   1.819   2.307   0.941 -0.6756 -0.3579 -0.3632
13249SOL     OW41187   4.951   6.650  10.415 -0.1014  0.5460  0.1646
13249SOL    HW141188   5.003   6.728  10.399  1.0666  0.1949  1.9643
13249SOL    HW241189   4.860   6.679  10.408  0.2050  2.7598  3.3350
13250SOL     OW41190   0.801   7.497   2.820 -0.2026  0.5073  0.2491
13250SOL    HW141191   0.790   7.546   2.901 -0.8850  0.7925 -0.0110
13250SOL    HW241192   0.771   7.556   2.751  1.0288  0.5337 -0.2996
13251SOL     OW41193   5.352   6.662   0.310  0.0493  0.1294  0.6308
13251SOL    HW141194   5.406   6.737   0.288 -1.7180  1.3221  0.1865
13251SOL    HW241195   5.303   6.643   0.230 -0.0785 -1.0439  0.9605
13252SOL     OW41196   4.219   6.174   9.794 -0.4053  0.1631  0.1156
13252SOL    HW141197   4.268   6.122   9.730 -1.6970  0.5365 -1.2195
13252SOL    HW241198   4.137   6.126   9.806  0.2100 -0.4765  2.3538
13253SOL     OW41199   1.252   4.783   9.606 -0.5841  0.0121  0.4108
13253SOL    HW141200   1.306   4.803   9.683  0.7001 -3.1992  0.5328
13253SOL    HW241201   1.285   4.840   9.537 -0.7518  1.9053  1.8136
13254SOL     OW41202   2.534   3.709   0.096 -0.7322  0.7127 -0.1461
13254SOL    HW141203   2.599   3.771   0.064 -2.6986  1.3158 -3.3299
13254SOL    HW241204   2.479   3.690   0.021 -1.4035 -3.5039  1.1498
13255SOL     OW41205   2.022   2.604  11.506 -0.4562  0.5619  0.2206
13255SOL    HW141206   2.052   2.655  11.431 -0.3231  0.5018  0.2321
13255SOL    HW241207   2.042   2.513  11.483  0.9004  0.6597  0.9175
13256SOL     OW41208   0.420   6.785   0.429  0.3491 -0.3033 -0.1495
13256SOL    HW141209   0.499   6.820   0.471  1.4820 -1.0643 -1.5663
13256SOL    HW241210   0.401   6.847   0.358  0.4192 -0.7750 -0.5854
13257SOL     OW41211   2.444   5.472   7.539 -0.3262 -0.0042 -0.0358
13257SOL    HW141212   2.477   5.460   7.450 -0.1297  0.2798 -0.0045
13257SOL    HW241213   2.394   5.393   7.557  1.0138 -0.8331  0.2210
13258SOL     OW41214   6.502   0.883   6.530  0.8753  0.5999 -0.1939
13258SOL    HW141215   6.540   0.804   6.493 -2.3752 -0.7200 -1.0460
13258SOL    HW241216   6.453   0.923   6.458 -2.7027 -0.1221  1.5888
13259SOL     OW41217   2.642   6.752  12.324  0.1339 -0.3896 -0.3335
13259SOL    HW141218   2.668   6.684  12.262  0.8875 -0.3301 -0.0899
13259SOL    HW241219   2.660   6.714  12.410  0.4446  0.0734 -0.1923
13260SOL     OW41220   4.413   0.619   4.288  0.2072  0.3137 -0.7031
13260SOL    HW141221   4.485   0.556   4.280  0.1379 -0.0868  1.2660
13260SOL    HW241222   4.340   0.567   4.323  0.0032  1.3608  0.5061
13261SOL     OW41223   3.232   0.483   3.666 -0.4484  0.0781  0.2334
13261SOL    HW141224   3.210   0.393   3.642 -0.1362  0.1998 -0.5203
13261SOL    HW241225   3.323   0.478   3.696 -0.0302  0.3368 -0.9532
13262SOL     OW41226   3.812   4.919   1.144 -0.2490  0.2226 -0.1752
13262SOL    HW141227   3.789   4.837   1.188 -1.1076  0.1362 -0.7601
13262SOL    HW241228   3.902   4.906   1.115  0.1260  0.0477  0.9980
13263SOL     OW41229   1.818   1.144   6.121  0.8873 -0.5430  0.0432
13263SOL    HW141230   1.783   1.129   6.209 -0.8360 -0.1108 -0.5346
13263SOL    HW241231   1.742   1.136   6.063  1.0691  3.3552 -1.0171
13264SOL     OW41232   5.986   5.600  12.157  0.0969  0.6528  0.0380
13264SOL    HW141233   5.949   5.595  12.245 -0.4926  2.0642 -0.0975
13264SOL    HW241234   5.925   5.656  12.109  1.5094  1.6479 -0.6682
13265SOL     OW41235   7.413   1.014   7.902  0.2149  0.9893  0.1543
13265SOL    HW141236   7.427   0.981   7.991  0.5445  2.9508  0.8737
13265SOL    HW241237   7.403   0.935   7.849  0.8768 -0.2531  1.7803
13266SOL     OW41238   0.934   7.261  11.349 -0.3532  0.1460 -0.6578
13266SOL    HW141239   0.915   7.222  11.264 -2.2341  1.6430 -0.9930
13266SOL    HW241240   0.997   7.331  11.330  2.1729 -1.8390 -0.2041
13267SOL     OW41241   3.143   6.630   0.686 -0.6390 -0.3087 -0.5470
13267SOL    HW141242   3.207   6.687   0.643 -1.0023 -0.3710 -1.1759
13267SOL    HW241243   3.190   6.594   0.762  0.4956 -1.4035 -1.7263
13268SOL     OW41244   6.330   5.891   4.851 -0.3618  0.2488 -0.3281
13268SOL    HW141245   6.310   5.798   4.859 -1.2835  0.1924 -2.5617
13268SOL    HW241246   6.258   5.926   4.798  1.4124  1.6358 -1.9557
13269SOL     OW41247   5.886   6.785  10.254 -0.6543 -0.0964  0.2849
13269SOL    HW141248   5.939   6.783  10.334 -1.2801 -1.0941  0.6925
13269SOL    HW241249   5.797   6.805  10.284 -0.7856  0.1158 -0.2264
13270SOL     OW41250   1.291   6.237  11.113 -0.1606 -0.2953  0.3205
13270SOL    HW141251   1.268   6.315  11.063  1.2799 -0.5722 -0.8514
13270SOL    HW241252   1.327   6.271  11.195  1.1542  0.3575 -0.4793
13271SOL     OW41253   0.091   4.927   4.828  0.6278 -0.3960  0.1028
13271SOL    HW141254   0.128   5.014   4.840  1.2395 -0.6903  0.4105
13271SOL    HW241255   0.161   4.867   4.853 -0.6086 -0.9779  2.4789
13272SOL     OW41256   1.279   3.586  10.108 -0.3209 -0.6411 -0.4153
13272SOL    HW141257   1.242   3.651  10.168  0.4457 -1.1229  0.6052
13272SOL    HW241258   1.374   3.595  10.118 -0.1557 -0.5045 -1.8192
13273SOL     OW41259   0.517   7.060   2.611  0.4009  0.0543  0.5682
13273SOL    HW141260   0.553   6.971   2.609  0.7886  0.2219 -1.2783
13273SOL    HW241261   0.446   7.056   2.676 -1.3542 -2.3240 -1.3214
13274SOL     OW41262   4.912   1.666   9.896  0.2499 -0.0105 -0.3488
13274SOL    HW141263   4.988   1.610   9.911 -0.4195 -1.1392 -1.0591
13274SOL    HW241264   4.945   1.755   9.905  1.4441 -0.5073  0.3021
13275SOL     OW41265   3.966   4.059   3.496 -0.5230 -0.0769 -0.1135
13275SOL    HW141266   4.048   4.037   3.452  0.7828  2.5916  0.7448
13275SOL    HW241267   3.924   4.120   3.435 -1.9165 -1.4018 -0.5309
13276SOL     OW41268   6.177   6.124   0.153  0.2609  0.2253  0.1613
13276SOL    HW141269   6.249   6.086   0.204 -0.3625  0.6940  1.4193
13276SOL    HW241270   6.188   6.086   0.065  0.6931 -1.4969  0.9168
13277SOL     OW41271   4.950   7.102   0.863  0.4045  0.4011  0.2438
13277SOL    HW141272   4.998   7.180   0.833  1.3607 -1.3483 -3.4119
13277SOL    HW241273   5.012   7.056   0.920  1.2020  0.6079 -0.4376
13278SOL     OW41274   2.314   7.557   1.413  0.0954  0.3844  0.2364
13278SOL    HW141275   2.227   7.571   1.376 -0.9619 -2.0072  1.5442
13278SOL    HW241276   2.373   7.556   1.337 -1.1854  0.8796 -0.7939
13279SOL     OW41277   3.891   0.330   4.981  0.2455 -0.0213 -0.1918
13279SOL    HW141278   3.915   0.413   4.941 -1.4966 -0.2372 -1.8012
13279SOL    HW241279   3.879   0.270   4.907  3.0910 -2.2371  0.9705
13280SOL     OW41280   6.196   0.762   2.008 -0.0359  0.2585  0.2534
13280SOL    HW141281   6.224   0.671   1.995  0.6518  0.1935  1.9672
13280SOL    HW241282   6.140   0.759   2.086 -0.1099  1.2829  0.2516
13281SOL     OW41283   1.893   0.942   3.936 -0.2157 -0.2573 -0.8622
13281SOL    HW141284   1.812   0.897   3.960 -0.0976 -0.0041  0.0557
13281SOL    HW241285   1.956   0.915   4.003  0.1999  0.2691 -1.0376
13282SOL     OW41286   7.773   0.583   3.132  0.4100  0.1037  0.3260
13282SOL    HW141287   7.856   0.555   3.168 -0.1012  0.0924  1.5425
13282SOL    HW241288   7.710   0.517   3.161  0.0227 -0.1084 -0.9117
13283SOL     OW41289   6.879   3.703   0.829 -0.4573 -0.4929  0.0612
13283SOL    HW141290   6.915   3.788   0.805 -1.1885  0.2667  1.5001
13283SOL    HW241291   6.808   3.723   0.890 -1.5064 -2.0785 -0.5614
13284SOL     OW41292   6.243   6.123   2.643 -0.3372  0.1890  0.1857
13284SOL    HW141293   6.172   6.159   2.588 -0.8927 -1.6437 -0.3614
13284SOL    HW241294   6.221   6.152   2.731 -0.2020  2.0118 -0.3402
13285SOL     OW41295   0.657   3.594   8.788  0.6025  0.2750  0.4604
13285SOL    HW141296   0.731   3.535   8.796  1.2090  1.1339  1.4158
13285SOL    HW241297   0.615   3.593   8.874  0.2892  0.7969  0.3240
13286SOL     OW41298   4.295   2.943   6.948 -0.1188 -0.2467  0.1293
13286SOL    HW141299   4.259   3.000   6.881 -1.8202 -0.9640  0.3740
13286SOL    HW241300   4.324   2.864   6.901 -1.2023 -0.7004  0.1956
13287SOL     OW41301   6.049   5.744   0.751  0.5943 -0.0099 -0.0841
13287SOL    HW141302   6.042   5.649   0.742  0.8887  0.0558 -1.1825
13287SOL    HW241303   6.052   5.776   0.661  2.8756  0.8445  0.2227
13288SOL     OW41304   0.651   0.487   1.364 -0.2152 -0.3450  0.3058
13288SOL    HW141305   0.571   0.539   1.366 -0.0127  0.1910 -2.1202
13288SOL    HW241306   0.620   0.396   1.357 -0.6769 -0.0922 -1.3620
13289SOL     OW41307   5.313   3.107   5.034 -0.1276 -0.1548 -0.1442
13289SOL    HW141308   5.315   3.016   5.005  0.6729  0.1279 -1.0376
13289SOL    HW241309   5.281   3.156   4.959  0.5033  0.4176 -0.0537
13290SOL     OW41310   7.039   6.601   5.930 -0.4822 -0.0126 -0.0858
13290SOL    HW141311   7.094   6.620   5.854 -1.9326 -1.4935 -1.6059
13290SOL    HW241312   7.057   6.509   5.950 -1.2035 -0.0495  0.4292
13291SOL     OW41313   1.023   2.923   2.380  0.3848  0.3433 -0.2318
13291SOL    HW141314   1.020   3.000   2.437  2.8172 -0.7580  1.6014
13291SOL    HW241315   0.946   2.872   2.405  0.9451  0.2903  1.5572
13292SOL     OW41316   0.130   3.249   7.684  0.1690 -0.0158  0.1105
13292SOL    HW141317   0.089   3.306   7.619 -0.4300 -1.4489 -0.8276
13292SOL    HW241318   0.091   3.276   7.767 -0.6774  0.4362 -0.4080
13293SOL     OW41319   5.279   0.106   2.684 -0.1781 -0.0049  0.0061
13293SOL    HW141320   5.312   0.023   2.717  1.5788 -0.5702 -2.7459
13293SOL    HW241321   5.326   0.173   2.735  0.2868 -0.7465  0.5606
13294SOL     OW41322   7.836   2.179   0.992 -0.1059  0.2038 -0.0247
13294SOL    HW141323   7.767   2.242   0.971 -0.4185  0.2207  0.9787
13294SOL    HW241324   7.835   2.174   1.088  2.3194  1.3677  0.1242
13295SOL     OW41325   5.979   7.652   0.048 -0.4880 -0.0076 -0.6046
13295SOL    HW141326   6.050   7.699   0.003  0.0350  1.8541  1.9720
13295SOL    HW241327   5.985   7.562   0.015  3.2041  0.0215 -0.3864
13296SOL     OW41328   7.696   3.103   6.940 -0.1636 -0.2314 -0.9637
13296SOL    HW141329   7.754   3.069   6.872 -1.1237 -3.4470 -0.3615
13296SOL    HW241330   7.743   3.083   7.022  0.0436  1.7011 -0.5614
13297SOL     OW41331   7.348   0.561   7.552  0.1391 -0.0735 -0.3240
13297SOL    HW141332   7.389   0.483   7.590  0.4815 -0.4993 -1.5205
13297SOL    HW241333   7.257   0.536   7.537  0.4670 -0.5805 -1.5656
13298SOL     OW41334   5.221   0.403   8.173 -0.1008 -0.4218  0.8479
13298SOL    HW141335   5.252   0.492   8.188 -0.8609 -0.0153  0.0756
13298SOL    HW241336   5.216   0.364   8.261 -1.8416  1.0022  1.4396
13299SOL     OW41337   7.406   5.348   8.007  0.0371 -0.0076  0.6899
13299SOL    HW141338   7.445   5.382   7.926 -0.0316  0.2905  0.7809
13299SOL    HW241339   7.386   5.426   8.059 -1.6143 -0.0859  0.2262
13300SOL     OW41340   5.438   0.119  10.510 -0.1247  0.3622 -0.2476
13300SOL    HW141341   5.445   0.211  10.534  0.2501  0.1357  0.5395
13300SOL    HW241342   5.375   0.118  10.438  1.1084  1.4257 -1.4010
13301SOL     OW41343   6.021   0.040   1.548  0.3324  0.4675 -0.4139
13301SOL    HW141344   6.093  -0.019   1.569 -0.1638 -0.7559 -1.9668
13301SOL    HW241345   5.943  -0.004   1.581  0.1937  1.4328  0.5928
13302SOL     OW41346   4.517   5.663  11.533 -0.6799 -0.2357  0.0383
13302SOL    HW141347   4.434   5.701  11.504 -0.9104 -0.6027  0.2177
13302SOL    HW241348   4.556   5.627  11.453  0.3940  1.9472 -0.4891
13303SOL     OW41349   5.088   2.844  12.097  0.4466  0.5932 -0.2361
13303SOL    HW141350   5.041   2.795  12.165  1.2282  0.0229 -0.0870
13303SOL    HW241351   5.047   2.818  12.015 -0.4876  1.2667  0.0014
13304SOL     OW41352   4.100   3.276   7.996 -0.6729  0.2394 -0.2307
13304SOL    HW141353   4.053   3.200   8.028 -0.0088  0.1877  0.6318
13304SOL    HW241354   4.100   3.338   8.069  0.2178  0.4161 -0.3682
13305SOL     OW41355   6.610   6.875  10.276 -0.1000  0.1477 -0.0890
13305SOL    HW141356   6.665   6.798  10.261  0.1433 -0.1541  2.0166
13305SOL    HW241357   6.522   6.840  10.285 -0.1966  0.2875 -0.4689
13306SOL     OW41358   6.106   6.078  12.028 -0.0999 -0.0334 -0.3493
13306SOL    HW141359   6.193   6.071  12.067 -0.1941  0.2224 -0.0810
13306SOL    HW241360   6.081   6.170  12.043 -0.9218 -0.4059  0.6755
13307SOL     OW41361   5.837   3.426  10.199 -0.5762 -0.4474 -0.3458
13307SOL    HW141362   5.903   3.468  10.144 -0.4334 -0.8840 -0.5173
13307SOL    HW241363   5.819   3.343  10.155 -2.8632  0.5859 -1.5077
13308SOL     OW41364   3.663   2.628   1.214  0.9307 -0.3788 -0.2526
13308SOL    HW141365   3.676   2.722   1.226 -0.9826 -0.3079  1.9810
13308SOL    HW241366   3.580   2.620   1.168  0.5250 -0.9812  0.5623
13309SOL     OW41367   3.657   2.187   8.980 -0.4079  0.4276  0.4792
13309SOL    HW141368   3.576   2.149   8.946  0.3300 -1.4111  0.6962
13309SOL    HW241369   3.634   2.215   9.068 -0.6770 -0.6281  0.7613
13310SOL     OW41370   0.673   0.873  11.230 -0.4673 -0.6225  0.2086
13310SOL    HW141371   0.671   0.922  11.312 -1.1341 -0.8215  0.3228
13310SOL    HW241372   0.721   0.793  11.251  2.4309  0.7918 -0.4835
13311SOL     OW41373   6.765   5.808  10.177  0.5821 -0.0240  0.0606
13311SOL    HW141374   6.753   5.817  10.082  3.5029 -0.0714 -0.4084
13311SOL    HW241375   6.826   5.735  10.186 -0.4084 -0.6650  2.0942
13312SOL     OW41376   7.580   5.519  10.613  0.4443 -0.0464  0.5836
13312SOL    HW141377   7.501   5.515  10.559 -0.3146 -0.6978  1.7019
13312SOL    HW241378   7.633   5.445  10.582 -0.2703 -0.8071  1.1300
13313SOL     OW41379   5.271   2.666   8.135 -0.0572 -0.0647 -0.1858
13313SOL    HW141380   5.261   2.583   8.089  0.6786 -0.1068 -0.2846
13313SOL    HW241381   5.209   2.725   8.092 -0.5793 -0.5527 -0.1195
13314SOL     OW41382   5.761   5.283   8.584 -0.5657 -0.0235 -0.8242
13314SOL    HW141383   5.690   5.225   8.611  0.0461 -0.6120 -0.4581
13314SOL    HW241384   5.839   5.228   8.586 -0.0858  0.6334 -1.1667
13315SOL     OW41385   5.099   1.359   7.761  0.0343 -0.2916 -0.1352
13315SOL    HW141386   5.150   1.304   7.820  1.6102 -1.0978 -2.1468
13315SOL    HW241387   5.134   1.341   7.674  1.1128  4.2881 -0.9432
13316SOL     OW41388   5.784   5.705  12.012 -0.6999  0.0313 -0.3533
13316SOL    HW141389   5.725   5.725  12.085 -1.1421 -1.3765 -0.2811
13316SOL    HW241390   5.725   5.680  11.941 -0.2302  0.1450 -0.7825
13317SOL     OW41391   7.467   1.022  12.311 -0.0189 -0.2217 -0.0144
13317SOL    HW141392   7.560   1.032  12.329  0.4172 -2.2279 -0.8144
13317SOL    HW241393   7.433   0.973  12.386 -0.4237  0.4148  0.2255
13318SOL     OW41394   3.501   6.309   2.192 -0.3339 -0.1116 -0.2316
13318SOL    HW141395   3.413   6.326   2.227 -0.1301  0.8806 -0.1493
13318SOL    HW241396   3.554   6.383   2.225  0.4404 -0.4951 -0.5869
13319SOL     OW41397   1.744   0.175   2.803  0.2681 -0.2097 -0.3058
13319SOL    HW141398   1.819   0.235   2.804  0.8031 -0.8249 -1.7573
13319SOL    HW241399   1.678   0.219   2.750 -0.0461 -0.0887  0.1813
13320SOL     OW41400   3.739   1.885   9.241 -0.6402 -0.4462 -0.2443
13320SOL    HW141401   3.823   1.930   9.246 -0.4670 -0.7121 -0.7767
13320SOL    HW241402   3.754   1.802   9.287 -1.4947  0.8084  2.5000
13321SOL     OW41403   1.224   4.302   4.202  0.1236 -0.8307 -0.7090
13321SOL    HW141404   1.244   4.394   4.219  0.2021 -1.0101  0.2332
13321SOL    HW241405   1.282   4.278   4.130 -0.1331 -0.0566 -1.1802
13322SOL     OW41406   1.809   4.685   9.321  0.1161 -0.0067  0.0217
13322SOL    HW141407   1.719   4.653   9.319  0.4970 -1.2054  1.0225
13322SOL    HW241408   1.828   4.710   9.231 -1.1318  0.0390 -0.2429
13323SOL     OW41409   2.247   2.454   9.652 -0.4315  0.1198  0.4750
13323SOL    HW141410   2.297   2.526   9.613 -0.3032 -0.0204  0.3809
13323SOL    HW241411   2.157   2.471   9.625 -0.3815  0.1704  0.3377
13324SOL     OW41412   7.836   7.465  11.084  0.3905  0.4209  0.5599
13324SOL    HW141413   7.927   7.440  11.098  0.3055  0.4607  1.2104
13324SOL    HW241414   7.812   7.513  11.164  0.0543  1.1266  0.0466
13325SOL     OW41415   0.993   4.626   0.775 -0.4737  0.7245 -0.2258
13325SOL    HW141416   0.993   4.539   0.736  2.8538  1.1930 -1.5667
13325SOL    HW241417   1.014   4.611   0.867  0.7959  0.1122 -0.5966
13326SOL     OW41418   7.959   7.036   2.411 -1.1767 -0.0438 -0.0605
13326SOL    HW141419   7.994   7.099   2.474 -0.2921 -0.5322 -0.0487
13326SOL    HW241420   7.864   7.039   2.424 -1.2055  1.8002 -0.5569
13327SOL     OW41421   6.611   5.943   1.681  0.1310  0.2694 -0.1612
13327SOL    HW141422   6.579   5.864   1.636  0.5085  0.7016 -1.2220
13327SOL    HW241423   6.532   5.987   1.712 -0.1040 -0.3227  0.0996
13328SOL     OW41424   4.374   4.250   9.053  0.5403  0.4075 -0.1190
13328SOL    HW141425   4.299   4.218   9.002  0.7834 -0.0661 -0.1810
13328SOL    HW241426   4.348   4.236   9.144  1.3712 -1.6961 -0.1560
13329SOL     OW41427   5.425   4.084  12.344 -0.0178 -0.0979  0.0065
13329SOL    HW141428   5.427   4.175  12.315 -0.8033  0.6464  2.1119
13329SOL    HW241429   5.371   4.039  12.278 -0.2403  1.1090 -0.6685
13330SOL     OW41430   6.697   3.892   6.867 -0.0162 -0.0009 -0.0601
13330SOL    HW141431   6.657   3.963   6.818 -1.4445 -1.3405 -0.8962
13330SOL    HW241432   6.624   3.847   6.909  1.0146  0.0283  1.8740
13331SOL     OW41433   7.268   5.057   6.971  0.2013  0.2269  0.1631
13331SOL    HW141434   7.264   5.118   6.898 -0.5729  1.1664  0.9550
13331SOL    HW241435   7.269   4.970   6.931  0.9022  0.7497 -0.9732
13332SOL     OW41436   0.926   2.595   0.891  0.0005  0.3470 -0.4231
13332SOL    HW141437   0.849   2.581   0.946  0.3449 -1.7434 -0.3679
13332SOL    HW241438   0.938   2.690   0.888  0.0005  0.5663  3.1313
13333SOL     OW41439   1.758   1.576   2.898  1.2702 -0.1643  0.5793
13333SOL    HW141440   1.780   1.487   2.924  0.4526 -0.5203  0.0831
13333SOL    HW241441   1.799   1.631   2.965  1.0215 -0.9509  1.4053
13334SOL     OW41442   7.818   4.322  10.829  0.2087 -0.0988 -0.0845
13334SOL    HW141443   7.825   4.416  10.814 -1.7322 -0.0234 -0.7511
13334SOL    HW241444   7.877   4.282  10.765  1.1346  0.6325  0.2817
13335SOL     OW41445   5.667   6.389   7.484 -0.0068 -0.2569  0.3837
13335SOL    HW141446   5.599   6.420   7.544 -1.0542 -0.3774 -0.6987
13335SOL    HW241447   5.619   6.357   7.408  1.2690 -0.3502 -0.4160
13336SOL     OW41448   0.701   5.326   8.188 -0.0421  0.0254 -0.2870
13336SOL    HW141449   0.648   5.272   8.248  0.1445 -0.0031 -0.1483
13336SOL    HW241450   0.648   5.332   8.109 -0.7922  0.9514  0.2534
13337SOL     OW41451   0.884   2.261   9.528 -0.3417  0.4808  0.2750
13337SOL    HW141452   0.975   2.230   9.523 -0.1180  1.2417 -0.5815
13337SOL    HW241453   0.891   2.356   9.532 -1.1215  0.6360 -1.2341
13338SOL     OW41454   6.391   7.222   9.337  0.4621  0.3969 -0.1144
13338SOL    HW141455   6.445   7.146   9.313  0.5254  0.6824 -0.9349
13338SOL    HW241456   6.346   7.245   9.255 -0.9041  0.1693  0.5523
13339SOL     OW41457   1.814   1.160  10.837  0.1321 -0.2098  0.1900
13339SOL    HW141458   1.863   1.228  10.790 -0.2882 -0.3786 -0.5073
13339SOL    HW241459   1.880   1.097  10.865  0.7979  1.4080  2.5219
13340SOL     OW41460   1.914   0.753  11.200  0.3552  0.0105  0.1857
13340SOL    HW141461   1.883   0.673  11.159 -0.4071  0.6482 -0.5094
13340SOL    HW241462   1.952   0.724  11.283 -1.8439 -0.8699  0.9680
13341SOL     OW41463   5.564   3.214   1.306  0.6218  0.4057  0.3136
13341SOL    HW141464   5.578   3.241   1.216 -0.4205  1.5239  0.4490
13341SOL    HW241465   5.651   3.215   1.346  1.3404 -1.7511 -1.0649
13342SOL     OW41466   7.625   5.582   2.121 -0.5962  0.1680 -0.2640
13342SOL    HW141467   7.538   5.555   2.089 -0.2546 -0.7120 -0.4719
13342SOL    HW241468   7.657   5.506   2.169 -1.3603  1.6621  2.8376
13343SOL     OW41469   1.108   0.964   3.129 -0.1304 -0.2667  0.0592
13343SOL    HW141470   1.062   1.018   3.065  0.1382 -0.6254 -0.4432
13343SOL    HW241471   1.059   0.976   3.210 -1.6193 -1.2783 -0.6485
13344SOL     OW41472   7.874   3.116   7.170 -0.2550  0.0126 -0.1583
13344SOL    HW141473   7.908   3.192   7.122  1.0322 -0.6957 -0.3939
13344SOL    HW241474   7.939   3.099   7.237 -1.2570 -0.0049  0.8334
13345SOL     OW41475   1.212   4.757   6.856 -0.2613  0.7122 -0.4685
13345SOL    HW141476   1.259   4.812   6.919  0.5404  0.7221 -1.0454
13345SOL    HW241477   1.166   4.693   6.909  1.3530 -0.0349  0.1110
13346SOL     OW41478   2.155   6.564   9.006 -0.3765 -0.0398 -0.2370
13346SOL    HW141479   2.113   6.629   9.062 -0.5008  0.2860 -0.7076
13346SOL    HW241480   2.248   6.568   9.031 -0.2602  0.8357 -0.7704
13347SOL     OW41481   5.205   1.576   5.890 -0.1259 -0.4247 -0.1794
13347SOL    HW141482   5.138   1.509   5.904  0.9249 -1.2695  0.9872
13347SOL    HW241483   5.269   1.535   5.833  0.4151 -0.3370  0.3619
13348SOL     OW41484   1.010   5.099   3.531  0.0350  0.2093  0.6251
13348SOL    HW141485   0.969   5.078   3.447 -1.3258  2.4213  0.6602
13348SOL    HW241486   1.090   5.046   3.533 -1.1395 -1.7497 -0.9332
13349SOL     OW41487   3.768   5.421   4.124  0.0515  0.5086  0.0512
13349SOL    HW141488   3.860   5.445   4.131 -0.0934  1.0519  0.1103
13349SOL    HW241489   3.730   5.486   4.065  0.4110 -1.7073 -2.8635
13350SOL     OW41490   4.237   1.707  12.146  0.1225  0.3176  0.0347
13350SOL    HW141491   4.329   1.687  12.161 -0.3090  0.0875  2.8583
13350SOL    HW241492   4.210   1.645  12.078  2.0676  0.5558 -1.0216
13351SOL     OW41493   7.892   7.754   9.688  0.0328  0.8588 -0.2842
13351SOL    HW141494   7.956   7.822   9.708  2.7081 -1.4696 -0.2820
13351SOL    HW241495   7.899   7.742   9.594  1.7540 -1.2783  0.0485
13352SOL     OW41496   1.770   0.902  10.180  0.0438  0.5836 -0.3503
13352SOL    HW141497   1.773   0.825  10.124  0.1488  1.4459 -1.5651
13352SOL    HW241498   1.858   0.941  10.173  0.2566  0.3664  0.9133
13353SOL     OW41499   3.037   3.967   1.625  0.1024 -0.3269 -0.4728
13353SOL    HW141500   3.071   3.968   1.714 -0.2728  1.9154 -0.2981
13353SOL    HW241501   2.953   3.923   1.632 -0.2225  0.3985  0.4272
13354SOL     OW41502   6.405   5.870  10.609  0.2788 -0.0498 -0.5117
13354SOL    HW141503   6.414   5.927  10.685 -3.1089 -0.9077  0.6981
13354SOL    HW241504   6.458   5.792  10.631  1.8779  0.9743 -0.5421
13355SOL     OW41505   7.755   2.644   3.468  0.1741  0.1071  0.3592
13355SOL    HW141506   7.752   2.582   3.396  1.6330 -0.4697  0.7519
13355SOL    HW241507   7.848   2.668   3.474  0.0722  0.1794  2.0013
13356SOL     OW41508   5.159   6.069   6.948 -0.5167  0.0524  0.0644
13356SOL    HW141509   5.145   6.051   7.041  0.4419 -0.1814  0.1760
13356SOL    HW241510   5.232   6.132   6.947  0.7688 -1.3894 -0.5766
13357SOL     OW41511   7.238   4.663   5.427 -0.1397  0.6631 -0.1463
13357SOL    HW141512   7.286   4.706   5.356 -0.1813 -0.8285 -1.1151
13357SOL    HW241513   7.280   4.694   5.507  0.9009  1.2068 -0.8883
13358SOL     OW41514   6.238   3.235  10.599 -0.1211  0.2049  0.5052
13358SOL    HW141515   6.180   3.171  10.639  1.1963 -1.1045  0.3765
13358SOL    HW241516   6.230   3.219  10.505  1.8743 -1.3502  0.5356
13359SOL     OW41517   3.118   1.635  10.941  0.1384 -0.0872 -0.2991
13359SOL    HW141518   3.118   1.700  11.011  1.5350  0.4357 -0.7595
13359SOL    HW241519   3.037   1.652  10.892  0.1316  0.8167  0.0208
13360SOL     OW41520   2.977   4.141  12.090  0.2060  0.8401  0.2561
13360SOL    HW141521   2.981   4.144  12.186 -1.4384 -1.5303  0.4661
13360SOL    HW241522   3.031   4.066  12.066 -0.2375  0.7880 -0.5992
13361SOL     OW41523   6.795   6.847  12.255 -0.2276  0.3299  0.2651
13361SOL    HW141524   6.714   6.834  12.206 -1.2429 -0.8174  2.1333
13361SOL    HW241525   6.863   6.808  12.199 -1.6160 -2.7532  0.4930
13362SOL     OW41526   1.859   6.805  11.208 -0.4018 -0.2329 -0.1078
13362SOL    HW141527   1.797   6.868  11.172  0.2737  0.1715 -0.5941
13362SOL    HW241528   1.823   6.780  11.293 -1.9420 -1.0544 -0.9544
13363SOL     OW41529   0.738   1.526   2.357  0.6196 -0.1690 -0.3592
13363SOL    HW141530   0.730   1.526   2.262  1.0435  0.8174 -0.4079
13363SOL    HW241531   0.648   1.512   2.388  0.0175  2.0214 -0.9108
13364SOL     OW41532   6.098   7.545   9.689  0.3968 -0.6577  0.4307
13364SOL    HW141533   6.055   7.484   9.629  0.0708 -1.8033  1.7594
13364SOL    HW241534   6.080   7.509   9.776  0.6908  1.0410  1.2397
13365SOL     OW41535   7.782   5.563  11.329 -0.3079 -0.2312 -0.2735
13365SOL    HW141536   7.843   5.503  11.285 -0.2389 -0.6365  0.3568
13365SOL    HW241537   7.732   5.507  11.389  0.5008  0.4743  1.1239
13366SOL     OW41538   7.506   4.322   4.172 -0.1621  0.6017  0.1828
13366SOL    HW141539   7.452   4.309   4.249  0.3144  0.4948  0.5050
13366SOL    HW241540   7.471   4.262   4.107 -2.0423  2.3101 -0.4696
13367SOL     OW41541   4.360   4.371   4.320  0.1445 -0.5074  0.1218
13367SOL    HW141542   4.359   4.436   4.250  0.6287 -1.0089 -0.3665
13367SOL    HW241543   4.277   4.384   4.366  0.2195  0.4151  0.0048
13368SOL     OW41544   0.853   4.949  10.459 -0.4291  0.4335 -0.2510
13368SOL    HW141545   0.947   4.960  10.441  0.2085  0.2974  2.6129
13368SOL    HW241546   0.819   5.039  10.460 -0.0373  0.5822  0.0396
13369SOL     OW41547   5.732   0.337  12.284 -0.6444  0.2570 -0.0772
13369SOL    HW141548   5.782   0.383  12.218  0.0812 -0.6822 -0.2023
13369SOL    HW241549   5.700   0.405  12.343 -2.1299  1.2245 -1.8988
13370SOL     OW41550   3.742   0.147   7.842 -0.4637 -0.0549 -0.1868
13370SOL    HW141551   3.822   0.174   7.887 -1.3474 -0.0117  1.4343
13370SOL    HW241552   3.689   0.106   7.911 -1.5123 -0.8008 -1.3988
13371SOL     OW41553   0.904   3.651   4.423 -0.5923  0.0236  0.1957
13371SOL    HW141554   0.932   3.659   4.332 -0.6761 -2.0288 -0.0656
13371SOL    HW241555   0.811   3.629   4.417 -0.7964  0.6809  0.8216
13372SOL     OW41556   6.564   1.524   8.687 -0.0471  0.1113 -0.2555
13372SOL    HW141557   6.499   1.459   8.715 -0.0812  0.5595  0.7516
13372SOL    HW241558   6.574   1.582   8.763 -0.1902  1.4272 -1.1972
13373SOL     OW41559   1.383   0.064   5.220  0.4531  0.4099  0.2233
13373SOL    HW141560   1.442   0.132   5.254 -0.4919  1.2451  0.2173
13373SOL    HW241561   1.304   0.110   5.196  0.7262 -0.3086 -2.2745
13374SOL     OW41562   5.204   0.857  10.193  0.2570  1.0496  0.3103
13374SOL    HW141563   5.259   0.835  10.269  2.0167  2.2853 -0.5538
13374SOL    HW241564   5.258   0.835  10.117  0.5729  4.3932 -0.5834
13375SOL     OW41565   0.641   0.889   7.913  0.3417 -0.4624 -0.3685
13375SOL    HW141566   0.710   0.860   7.972  1.9456  1.6520 -1.0872
13375SOL    HW241567   0.628   0.816   7.853  0.4921 -1.6467  0.9794
13376SOL     OW41568   3.564   3.600   4.857 -0.3247  0.1243 -0.4983
13376SOL    HW141569   3.635   3.643   4.905  0.6372  0.6696 -2.3027
13376SOL    HW241570   3.598   3.511   4.841 -0.2655  0.2181 -0.9033
13377SOL     OW41571   6.694   7.668   3.644 -0.8053  0.7109  0.2435
13377SOL    HW141572   6.736   7.590   3.681 -0.8143 -0.7104 -2.5015
13377SOL    HW241573   6.600   7.652   3.656 -0.7642  1.0436  1.0462
13378SOL     OW41574   6.248   5.115   2.822 -0.2905  0.1254 -0.3660
13378SOL    HW141575   6.294   5.173   2.883 -0.8660 -1.1332  1.3427
13378SOL    HW241576   6.180   5.170   2.784  0.0385  0.9296  0.1697
13379SOL     OW41577   5.510   2.913   3.652 -0.0290 -0.5087  0.4835
13379SOL    HW141578   5.497   2.821   3.629  0.6021 -1.0265  2.0309
13379SOL    HW241579   5.526   2.912   3.746  2.0666  0.9659  0.2200
13380SOL     OW41580   6.745   0.318   4.737  0.1084  0.2324 -0.0899
13380SOL    HW141581   6.720   0.322   4.644 -3.5018  1.0841  0.7782
13380SOL    HW241582   6.769   0.408   4.759 -0.1272  0.2586  0.0600
13381SOL     OW41583   6.703   5.129   3.402 -0.1430 -0.2630  0.1728
13381SOL    HW141584   6.665   5.206   3.360 -0.9865 -0.7824 -0.0594
13381SOL    HW241585   6.752   5.163   3.476  2.1387  0.7911 -1.6781
13382SOL     OW41586   1.905   0.709   6.840 -0.4135 -0.5036  0.2750
13382SOL    HW141587   1.902   0.645   6.911  0.5639 -1.5332 -0.5592
13382SOL    HW241588   1.971   0.773   6.868  0.3325 -1.1816  0.0916
13383SOL     OW41589   7.041   7.746   9.926 -0.4063  0.3434  0.1740
13383SOL    HW141590   7.015   7.654   9.931 -1.9384  0.7776  0.9337
13383SOL    HW241591   7.048   7.765   9.833  0.8390 -0.7724  0.0244
13384SOL     OW41592   4.313   1.076   6.856  0.6186 -0.0943 -0.4370
13384SOL    HW141593   4.308   1.091   6.951  0.8504 -0.0999 -0.4226
13384SOL    HW241594   4.288   0.984   6.846 -0.0763  0.0947 -0.4523
13385SOL     OW41595   0.102   5.891   8.025 -0.1440  0.4239 -0.2334
13385SOL    HW141596   0.074   5.964   8.079  1.3170  0.3530  0.6720
13385SOL    HW241597   0.105   5.926   7.936 -1.0630  0.9797 -0.0510
13386SOL     OW41598   0.830   5.436   3.509  0.3718 -0.4698  0.1313
13386SOL    HW141599   0.910   5.389   3.533 -0.4968 -1.6862  0.7294
13386SOL    HW241600   0.826   5.432   3.414  1.4471  0.3419  0.0369
13387SOL     OW41601   1.175   2.545   4.309  0.0646 -0.2124  0.8656
13387SOL    HW141602   1.253   2.513   4.264  0.3396 -1.0554  1.8925
13387SOL    HW241603   1.201   2.552   4.401 -1.2591 -1.2756  1.3759
13388SOL     OW41604   3.103   4.989   6.393 -0.5647  0.5158  0.1322
13388SOL    HW141605   3.092   4.969   6.486 -0.7197  1.9000  0.4332
13388SOL    HW241606   3.168   4.926   6.362 -0.3343  0.1942  1.2363
13389SOL     OW41607   1.589   5.901   4.711 -0.3865 -0.0439 -0.3005
13389SOL    HW141608   1.602   5.884   4.805  0.0753 -0.3085 -0.4123
13389SOL    HW241609   1.511   5.849   4.688 -1.4780  1.2714  0.2883
13390SOL     OW41610   0.188   2.259   8.045 -0.0026 -0.6442 -0.2202
13390SOL    HW141611   0.267   2.239   7.995 -1.6514 -1.0946 -2.8397
13390SOL    HW241612   0.145   2.175   8.059  0.4564 -0.5529  2.1885
13391SOL     OW41613   7.642   3.293   2.944 -0.0437 -0.0841 -0.0359
13391SOL    HW141614   7.563   3.311   2.894  0.1677  0.7941 -0.0876
13391SOL    HW241615   7.633   3.203   2.974 -0.8504 -0.1346 -0.4181
13392SOL     OW41616   7.626   2.434   9.753  0.0600 -0.0615 -0.0875
13392SOL    HW141617   7.663   2.523   9.754 -2.2679  1.0113 -1.3563
13392SOL    HW241618   7.614   2.412   9.845  2.4337  0.1044  0.3122
13393SOL     OW41619   7.373   3.487   2.774  0.2685  0.0518 -0.3815
13393SOL    HW141620   7.295   3.534   2.803  0.9015  0.8446  0.0963
13393SOL    HW241621   7.445   3.548   2.791  1.1794 -1.2339  0.5897
13394SOL     OW41622   5.489   5.501   5.331  0.4056  0.1412 -0.1223
13394SOL    HW141623   5.545   5.572   5.361 -0.5767  0.8600  0.0543
13394SOL    HW241624   5.463   5.526   5.243 -0.2870  0.2138  0.0989
13395SOL     OW41625   3.710   5.096   6.513  0.0601 -0.2079  0.1918
13395SOL    HW141626   3.772   5.139   6.572 -0.1936 -0.3991  0.5992
13395SOL    HW241627   3.624   5.126   6.542 -0.0375  0.1203 -0.4244
13396SOL     OW41628   1.949   1.893   6.440  0.7080  0.0341 -0.4608
13396SOL    HW141629   1.961   1.975   6.393  0.8219  0.7853  0.8348
13396SOL    HW241630   2.036   1.869   6.470  0.5047  0.0433  0.1469
13397SOL     OW41631   4.046   4.044   9.728  0.4244  0.4032  0.2083
13397SOL    HW141632   3.981   4.046   9.658  0.0015 -1.2556  0.5171
13397SOL    HW241633   4.034   4.128   9.773 -0.9145  0.4975 -0.2675
13398SOL     OW41634   6.062   3.916  11.287  0.1736  0.0307  0.3377
13398SOL    HW141635   6.022   3.841  11.330  1.9179 -0.7401  0.6796
13398SOL    HW241636   5.988   3.975  11.268 -0.9986 -0.9411  1.6734
13399SOL     OW41637   3.944   4.578   5.796  0.3681  0.2894 -0.0206
13399SOL    HW141638   4.026   4.622   5.775  0.7153 -0.1753  0.3275
13399SOL    HW241639   3.895   4.577   5.714  0.7003  0.5944 -0.2240
13400SOL     OW41640   7.134   5.547   5.467  0.0299  0.6424  0.1385
13400SOL    HW141641   7.221   5.551   5.428 -0.3903  2.4780 -0.6578
13400SOL    HW241642   7.082   5.611   5.419 -1.8312 -0.5245  0.4887
13401SOL     OW41643   3.997   0.664   7.830  0.5173 -0.7398 -0.3601
13401SOL    HW141644   3.960   0.688   7.915  1.4765 -0.2712 -0.0568
13401SOL    HW241645   4.059   0.594   7.850  0.5412 -0.8211 -0.7140
13402SOL     OW41646   3.891   4.709   6.042 -0.6931  0.4353  0.1180
13402SOL    HW141647   3.817   4.756   6.005 -2.0491 -0.4090  1.6229
13402SOL    HW241648   3.923   4.653   5.971 -1.5488  0.7437 -0.5181
13403SOL     OW41649   3.425   5.625   4.301 -0.1665 -0.4293 -0.2051
13403SOL    HW141650   3.366   5.659   4.369 -0.5982 -1.1837 -0.1962
13403SOL    HW241651   3.385   5.654   4.219 -0.2772 -0.5083 -0.1801
13404SOL     OW41652   5.906   4.826   6.921  0.5198 -0.0292  0.1930
13404SOL    HW141653   5.999   4.823   6.944  0.1578  0.0895  1.7748
13404SOL    HW241654   5.862   4.782   6.994 -0.7263  0.5742 -0.1666
13405SOL     OW41655   4.573   3.464   3.274 -0.1667 -0.6268 -0.6484
13405SOL    HW141656   4.505   3.398   3.282 -1.6671  0.9592  0.2419
13405SOL    HW241657   4.532   3.536   3.226  1.3990 -0.2700 -1.5327
13406SOL     OW41658   3.764   5.982   0.932  0.1987  0.3268 -0.4271
13406SOL    HW141659   3.752   6.043   0.860  0.3638 -0.5368 -1.1958
13406SOL    HW241660   3.792   6.037   1.006 -0.2785  1.2517 -0.9259
13407SOL     OW41661   5.147   2.883   0.726  0.1982 -0.3453 -0.5882
13407SOL    HW141662   5.090   2.854   0.654  0.4929 -2.0819 -0.1832
13407SOL    HW241663   5.224   2.920   0.683 -1.1587  2.0430 -1.1481
13408SOL     OW41664   5.023   5.116   0.224 -0.0359 -0.6735 -0.4062
13408SOL    HW141665   5.032   5.023   0.205  0.1811 -1.5254  3.0902
13408SOL    HW241666   4.930   5.128   0.243 -0.2088  0.0488 -1.5948
13409SOL     OW41667   7.869   3.542   6.369 -0.8078 -0.1119 -0.2640
13409SOL    HW141668   7.821   3.514   6.446 -1.2551 -1.2805 -0.9362
13409SOL    HW241669   7.835   3.629   6.349 -1.7256 -0.3945  0.0284
13410SOL     OW41670   4.474   2.287   6.196 -0.2675 -0.0610  0.5069
13410SOL    HW141671   4.523   2.322   6.122 -2.2205 -1.6968 -1.7031
13410SOL    HW241672   4.541   2.248   6.252  1.2387  0.7077 -0.6840
13411SOL     OW41673   1.321   3.857   9.431  0.3588  0.7134  0.0763
13411SOL    HW141674   1.354   3.937   9.391 -1.0195  1.2360 -0.0737
13411SOL    HW241675   1.321   3.793   9.359  2.6676  0.1411  0.4820
13412SOL     OW41676   4.006   2.068   0.188  0.8850  0.3292 -0.0580
13412SOL    HW141677   4.015   2.018   0.107  0.7802  0.7665 -0.3421
13412SOL    HW241678   4.048   2.014   0.254 -0.8114 -0.9957  0.0095
13413SOL     OW41679   2.834   4.821   3.676 -0.1299  0.1717  0.0210
13413SOL    HW141680   2.879   4.793   3.596 -1.3911 -0.1079 -0.6181
13413SOL    HW241681   2.792   4.742   3.709  0.2370  0.3244  0.8715
13414SOL     OW41682   4.235   6.207   2.745 -0.4771  0.4659 -0.2453
13414SOL    HW141683   4.325   6.176   2.753 -0.3133  0.7552 -0.8748
13414SOL    HW241684   4.243   6.303   2.740 -0.8664  0.5282  0.2866
13415SOL     OW41685   6.296   4.870   4.668 -0.1239  0.4616 -0.0570
13415SOL    HW141686   6.300   4.860   4.763  0.0607 -0.1198 -0.1192
13415SOL    HW241687   6.379   4.833   4.637  0.5051  2.0227 -0.3539
13416SOL     OW41688   4.690   2.447   6.044 -0.1038  0.2178 -0.3032
13416SOL    HW141689   4.657   2.537   6.045 -1.3892 -0.2418  0.0529
13416SOL    HW241690   4.736   2.440   5.961  1.0332  1.5475  0.1620
13417SOL     OW41691   0.329   3.145   5.014  0.1658 -0.0040 -0.6514
13417SOL    HW141692   0.322   3.166   5.107  0.6403 -1.8413 -0.1520
13417SOL    HW241693   0.253   3.187   4.974 -0.2290  0.5446  0.6113
13418SOL     OW41694   5.839   2.894   5.150  0.1187  0.1903 -0.3341
13418SOL    HW141695   5.805   2.809   5.122 -0.2394 -0.0493  0.7623
13418SOL    HW241696   5.900   2.873   5.221 -1.4172  0.9394  1.2850
13419SOL     OW41697   7.216   5.202   1.455  0.0945 -0.1167  0.1436
13419SOL    HW141698   7.162   5.126   1.433  3.5211 -2.2194 -2.0613
13419SOL    HW241699   7.168   5.277   1.418 -2.2556 -1.4744  0.2234
13420SOL     OW41700   0.859   6.627   4.228 -0.2549 -0.3270 -0.0818
13420SOL    HW141701   0.850   6.533   4.245 -0.0450 -0.4504 -0.6422
13420SOL    HW241702   0.948   6.648   4.256 -0.4821 -0.1771  0.5537
13421SOL     OW41703   1.473   7.533   2.858 -0.3626  0.2983  0.3374
13421SOL    HW141704   1.464   7.550   2.951  0.2616  0.2255  0.4187
13421SOL    HW241705   1.407   7.588   2.816 -0.9251  0.0141  0.8490
13422SOL     OW41706   4.457   0.539  10.103 -0.4408  0.2872 -0.1749
13422SOL    HW141707   4.518   0.553  10.175 -0.8003  3.6670 -0.3454
13422SOL    HW241708   4.375   0.579  10.133 -0.7480  1.3537 -2.1982
13423SOL     OW41709   0.726   2.120   5.621 -0.2395  0.4935  0.0417
13423SOL    HW141710   0.701   2.038   5.663 -0.2959  0.8639  0.7435
13423SOL    HW241711   0.818   2.108   5.598 -0.6472 -0.3629 -1.3303
13424SOL     OW41712   7.710   6.553   1.193  0.3603  0.2184 -0.3558
13424SOL    HW141713   7.681   6.625   1.137  1.8076  0.1847 -1.1936
13424SOL    HW241714   7.688   6.474   1.143 -1.0522  0.0392  0.4797
13425SOL     OW41715   3.827   4.180   5.841  0.7605 -0.1213  0.0433
13425SOL    HW141716   3.857   4.197   5.752 -0.2787  0.6604 -0.1763
13425SOL    HW241717   3.855   4.257   5.891  3.8769 -1.7573  1.1173
13426SOL     OW41718   3.537   4.472   6.268 -0.2534 -0.4291  0.2751
13426SOL    HW141719   3.459   4.523   6.247  0.1551  0.3318  0.5566
13426SOL    HW241720   3.606   4.538   6.282  0.5238 -1.0913 -0.3173
13427SOL     OW41721   4.979   7.276  12.346 -0.0606  0.3035  0.3157
13427SOL    HW141722   4.965   7.322  12.263  1.8155 -0.5512 -0.5238
13427SOL    HW241723   5.034   7.335  12.397 -1.1385  0.7881  0.9693
13428SOL     OW41724   4.793   7.717   9.692 -0.0587  0.0355 -0.5868
13428SOL    HW141725   4.879   7.739   9.726  0.0411 -1.1391 -0.0329
13428SOL    HW241726   4.772   7.788   9.631  0.2220  1.6369  1.0892
13429SOL     OW41727   2.858   0.343   1.556 -0.1073  0.2733 -1.0009
13429SOL    HW141728   2.928   0.281   1.572  0.2233  0.7073 -0.7343
13429SOL    HW241729   2.881   0.385   1.473 -0.6799 -0.4280 -1.5256
13430SOL     OW41730   3.496   0.131   6.262 -0.0669  0.1833 -0.2819
13430SOL    HW141731   3.527   0.075   6.191  1.9415 -0.2047  0.8529
13430SOL    HW241732   3.536   0.095   6.341 -1.9070  0.8596  1.0342
13431SOL     OW41733   7.272   0.051   7.624  0.1482  0.1127 -0.5978
13431SOL    HW141734   7.235   0.138   7.609  0.8015  0.4532 -0.2502
13431SOL    HW241735   7.283   0.015   7.536 -1.0455 -0.0248 -0.7149
13432SOL     OW41736   6.361   5.290   6.555 -0.6194 -0.0865 -0.6582
13432SOL    HW141737   6.274   5.326   6.542 -1.3531 -1.3612  0.4336
13432SOL    HW241738   6.406   5.305   6.471 -1.6309  1.2080 -0.9993
13433SOL     OW41739   3.545   1.148   8.235  0.0900 -0.7053 -0.2968
13433SOL    HW141740   3.550   1.106   8.321  0.1975  0.4982  0.2925
13433SOL    HW241741   3.490   1.225   8.248  0.2098 -0.4386 -1.2785
13434SOL     OW41742   6.078   6.376  10.236  0.2636  0.6855  0.1281
13434SOL    HW141743   6.009   6.311  10.225  0.7698  0.3076 -0.9832
13434SOL    HW241744   6.062   6.414  10.323  0.3050 -1.3101  1.0555
13435SOL     OW41745   6.599   0.587  10.309  0.1642  0.0816 -0.0838
13435SOL    HW141746   6.592   0.617  10.219 -0.9084  0.4221  0.1024
13435SOL    HW241747   6.674   0.635  10.345  0.8526 -0.3506 -0.8830
13436SOL     OW41748   7.011   5.950  11.556  0.2907  0.5102  0.4493
13436SOL    HW141749   6.930   5.925  11.512 -0.9946  3.3698  0.9652
13436SOL    HW241750   7.077   5.952  11.487 -0.5842  0.3455 -0.4070
13437SOL     OW41751   5.219   6.121   1.069 -0.1913  0.4673 -0.1800
13437SOL    HW141752   5.239   6.215   1.067  0.0166  0.4446  0.5145
13437SOL    HW241753   5.149   6.113   1.132  0.8479 -0.0196  0.9475
13438SOL     OW41754   5.232   6.919   8.162 -0.0847 -0.4644  0.3012
13438SOL    HW141755   5.302   6.957   8.215 -1.1317  0.8725  0.7997
13438SOL    HW241756   5.272   6.905   8.076  0.7805  0.3232  0.5551
13439SOL     OW41757   5.959   4.512   4.509  0.2721  0.2511  0.4795
13439SOL    HW141758   6.044   4.529   4.470  0.7366 -0.6292  1.0902
13439SOL    HW241759   5.898   4.513   4.435  1.0618 -0.9221 -0.2231
13440SOL     OW41760   0.870   6.400  11.540 -0.0719  0.3261  0.0809
13440SOL    HW141761   0.917   6.319  11.557  1.3620  0.7979 -1.3425
13440SOL    HW241762   0.914   6.438  11.464 -2.0227  1.4144 -0.5919
13441SOL     OW41763   0.489   7.763  11.678  0.2775  0.5663 -0.0837
13441SOL    HW141764   0.573   7.720  11.692  0.4744  1.0131  0.1218
13441SOL    HW241765   0.426   7.713  11.730  0.3949  0.1707 -0.3176
13442SOL     OW41766   5.077   1.293   3.423 -0.8543  0.2333  0.8176
13442SOL    HW141767   5.059   1.299   3.517 -3.3533 -0.9841  0.5112
13442SOL    HW241768   5.110   1.203   3.411 -0.8442  0.2811  0.4781
13443SOL     OW41769   3.827   3.490   7.388 -0.5101  0.5353 -0.2065
13443SOL    HW141770   3.783   3.405   7.381 -1.0287  0.7366  0.4539
13443SOL    HW241771   3.755   3.553   7.397 -0.1169  1.0133 -0.3489
13444SOL     OW41772   7.726   4.418   8.897 -0.2871  0.0681  0.0386
13444SOL    HW141773   7.708   4.494   8.952  0.2809  0.6314 -0.5280
13444SOL    HW241774   7.808   4.382   8.932 -0.1589  0.1673 -0.1551
13445SOL     OW41775   3.726   7.679   3.546 -0.1282  0.5077  0.1797
13445SOL    HW141776   3.712   7.771   3.522 -0.4509  0.4717  0.2327
13445SOL    HW241777   3.799   7.651   3.490 -2.7635 -0.4627 -3.1301
13446SOL     OW41778   6.494   1.078   5.419 -0.4850  0.0434 -0.2899
13446SOL    HW141779   6.404   1.111   5.409 -1.0196 -0.9828  0.9788
13446SOL    HW241780   6.498   1.046   5.508  0.0084 -3.3170 -1.3966
13447SOL     OW41781   0.851   2.986   2.736  0.0822  0.2981 -0.4189
13447SOL    HW141782   0.927   2.947   2.780 -0.3048 -0.1955 -0.1669
13447SOL    HW241783   0.888   3.053   2.679  0.8002 -0.6684 -1.1127
13448SOL     OW41784   1.055   3.940   1.957  0.3620  0.0761 -0.2344
13448SOL    HW141785   0.981   3.885   1.981  1.1520 -1.3164 -0.8310
13448SOL    HW241786   1.016   4.024   1.932 -0.9099 -0.3071  0.3895
13449SOL     OW41787   6.424   6.597   6.235 -0.4187 -0.4692 -0.2054
13449SOL    HW141788   6.379   6.624   6.154 -0.3207 -0.1254 -0.1486
13449SOL    HW241789   6.425   6.502   6.231  1.1996 -0.4506 -1.5277
13450SOL     OW41790   3.965   2.470   1.458 -0.4216  0.4782 -0.0620
13450SOL    HW141791   4.048   2.476   1.506  0.7018 -0.5826 -1.7775
13450SOL    HW241792   3.946   2.560   1.433 -0.4874  0.9085  1.4410
13451SOL     OW41793   7.217   4.340  11.932 -0.2821  0.2362 -0.3911
13451SOL    HW141794   7.283   4.279  11.965 -1.5735 -2.4888 -2.4350
13451SOL    HW241795   7.231   4.421  11.982  2.4695 -1.2454  1.4626
13452SOL     OW41796   2.889   4.668   6.056 -0.2149  0.1863  0.2197
13452SOL    HW141797   2.888   4.572   6.064  0.0987  0.1690  0.0791
13452SOL    HW241798   2.911   4.684   5.964 -0.8817  0.3942  0.0966
13453SOL     OW41799   7.450   7.001   3.437 -0.3074  0.0389  0.7667
13453SOL    HW141800   7.486   6.925   3.391 -0.3817 -0.6073  1.7334
13453SOL    HW241801   7.518   7.068   3.429 -0.2668 -0.1006 -0.1476
13454SOL     OW41802   6.487   1.789   8.516  0.1194  0.1115  0.0932
13454SOL    HW141803   6.492   1.879   8.546  0.2566 -0.1896  1.0004
13454SOL    HW241804   6.488   1.736   8.596 -2.1816 -0.6360 -0.2813
13455SOL     OW41805   4.549   7.545   5.936 -0.2952  0.3829 -0.6176
13455SOL    HW141806   4.607   7.483   5.978 -1.6459 -2.1497 -2.2472
13455SOL    HW241807   4.511   7.596   6.008 -0.3935 -1.8169  0.9726
13456SOL     OW41808   2.318   0.592  11.017 -0.0881 -0.6375  0.2888
13456SOL    HW141809   2.392   0.566  11.071 -0.3889 -0.1983  0.9249
13456SOL    HW241810   2.298   0.681  11.045 -0.9276 -0.7913  0.2019
13457SOL     OW41811   0.160   7.113   8.338  0.1992 -0.0600  0.1898
13457SOL    HW141812   0.106   7.057   8.394  0.0360 -0.6741 -0.5600
13457SOL    HW241813   0.177   7.191   8.391 -0.2731 -0.4568  0.9431
13458SOL     OW41814   2.387   5.174   7.071  0.2845  0.0191  0.1111
13458SOL    HW141815   2.294   5.154   7.065  0.2157  0.2169  0.4753
13458SOL    HW241816   2.390   5.270   7.078  0.5906  0.1252 -1.2922
13459SOL     OW41817   5.210   1.893   5.048 -0.0101 -0.4144  0.1991
13459SOL    HW141818   5.178   1.807   5.021 -0.9235  0.1019 -0.3903
13459SOL    HW241819   5.221   1.885   5.143 -1.3003 -0.8026  0.3284
13460SOL     OW41820   5.415   6.240  11.296 -0.4668  0.5088  0.3344
13460SOL    HW141821   5.454   6.287  11.370 -0.2668  0.4704  0.2554
13460SOL    HW241822   5.372   6.307  11.244 -2.8359  0.2602  1.8158
13461SOL     OW41823   5.559   4.209  10.239 -0.3023 -0.1793 -0.5089
13461SOL    HW141824   5.539   4.149  10.167  1.5827 -0.8231 -0.5513
13461SOL    HW241825   5.578   4.152  10.314  0.3709  0.3910 -0.2280
13462SOL     OW41826   2.340   0.437   4.878  0.3347 -0.3313  0.4771
13462SOL    HW141827   2.423   0.474   4.849 -0.3578  0.9305 -0.0131
13462SOL    HW241828   2.302   0.397   4.800  0.1882 -0.3262  0.5450
13463SOL     OW41829   1.787   0.596   3.890 -0.0234  0.6978  0.1239
13463SOL    HW141830   1.730   0.530   3.930 -0.3343  0.2515 -1.0178
13463SOL    HW241831   1.875   0.560   3.897 -0.1044  0.5134  0.1960
13464SOL     OW41832   3.985   0.601   0.821 -0.2733 -0.0974 -0.2361
13464SOL    HW141833   3.928   0.675   0.800 -0.6588  0.1822  1.6223
13464SOL    HW241834   4.043   0.634   0.890 -0.7729 -1.6336  0.9790
13465SOL     OW41835   4.450   4.363   3.586 -0.0126  0.0559 -0.0266
13465SOL    HW141836   4.412   4.339   3.502  1.1235 -0.3790 -0.4330
13465SOL    HW241837   4.385   4.421   3.626  0.0799  1.4686 -1.8301
13466SOL     OW41838   6.197   1.876  11.053 -0.0468 -0.2526 -0.3492
13466SOL    HW141839   6.269   1.818  11.078  0.8279  0.7436 -0.4979
13466SOL    HW241840   6.186   1.862  10.959  0.2401 -0.1018 -0.4069
13467SOL     OW41841   4.010   1.679   0.525 -0.0615 -0.1725  0.0116
13467SOL    HW141842   4.032   1.611   0.461 -0.2756 -1.5044  1.2886
13467SOL    HW241843   4.091   1.693   0.574 -0.0544  0.4170 -0.1615
13468SOL     OW41844   7.677   2.619   2.984 -0.3492  0.0803 -0.0156
13468SOL    HW141845   7.647   2.710   2.975  1.4606  0.7008 -0.1088
13468SOL    HW241846   7.768   2.620   2.954  0.1303 -1.4965  1.2213
13469SOL     OW41847   6.140   6.813   5.197  0.3176 -0.5164  0.4619
13469SOL    HW141848   6.076   6.841   5.263 -0.6144 -0.0934 -0.5821
13469SOL    HW241849   6.207   6.880   5.198 -2.5105  2.8725 -2.9229
13470SOL     OW41850   0.998   1.359   8.124 -0.3645 -0.6131  0.4810
13470SOL    HW141851   1.093   1.353   8.123 -0.4551 -2.8445  0.5845
13470SOL    HW241852   0.974   1.364   8.216 -0.3554  0.8474  0.4334
13471SOL     OW41853   5.357   4.702  10.175  0.8526 -0.2983  0.0836
13471SOL    HW141854   5.435   4.657  10.209  0.6134 -1.6105 -1.0125
13471SOL    HW241855   5.350   4.671  10.085 -0.0480  1.0317 -0.3155
13472SOL     OW41856   5.034   3.720   5.386  0.1237 -0.1457  0.0397
13472SOL    HW141857   4.970   3.752   5.450  1.1285 -1.8908  2.0505
13472SOL    HW241858   4.991   3.646   5.343  0.1618 -0.2167  0.1237
13473SOL     OW41859   7.365   6.366   7.407  0.8051  0.3202  0.1536
13473SOL    HW141860   7.447   6.371   7.359  0.9719  2.3918  0.5777
13473SOL    HW241861   7.314   6.300   7.360  2.8435 -1.3998  0.1708
13474SOL     OW41862   6.109   1.354   6.716 -0.0811 -0.1840 -0.0355
13474SOL    HW141863   6.043   1.320   6.777  0.2035  0.8796  0.9169
13474SOL    HW241864   6.191   1.317   6.748 -0.0656 -0.5664 -0.5077
13475SOL     OW41865   5.235   0.278   8.426  0.3919  0.5357  0.6100
13475SOL    HW141866   5.304   0.213   8.446  0.0554  0.6059  2.1560
13475SOL    HW241867   5.253   0.350   8.487 -1.1504  0.4700  1.1725
13476SOL     OW41868   1.042   5.231   8.557 -0.7536  0.4642  0.1763
13476SOL    HW141869   1.070   5.188   8.638 -1.8662 -0.8810 -0.1089
13476SOL    HW241870   1.018   5.158   8.499  0.1846  1.3896 -1.4419
13477SOL     OW41871   1.866   5.386   4.243 -0.1829 -0.0480  0.2644
13477SOL    HW141872   1.784   5.401   4.290  0.0395 -0.5562  0.8269
13477SOL    HW241873   1.906   5.312   4.288  0.2671 -0.2357 -0.4315
13478SOL     OW41874   4.931   6.543   7.631  0.8186 -0.3973 -0.2192
13478SOL    HW141875   4.961   6.523   7.542  1.5547  0.7010 -0.2374
13478SOL    HW241876   4.836   6.533   7.627  0.9809 -2.0462 -0.6717
13479SOL     OW41877   7.424   3.155   7.064  0.1228 -0.4296  0.6727
13479SOL    HW141878   7.520   3.153   7.061  0.1277  0.1464  0.3038
13479SOL    HW241879   7.400   3.075   7.111  0.7972 -0.3848  1.1095
13480SOL     OW41880   4.577   2.334   5.420 -0.2066 -0.1970  0.5493
13480SOL    HW141881   4.642   2.315   5.352 -1.1516  0.5782 -0.5997
13480SOL    HW241882   4.499   2.361   5.372 -0.4304  1.8955  1.9523
13481SOL     OW41883   0.105   0.764   6.834  0.2980 -0.2071  0.2227
13481SOL    HW141884   0.163   0.709   6.781 -0.6460 -1.1787  0.1832
13481SOL    HW241885   0.164   0.826   6.877  1.3697 -1.1498  0.1549
13482SOL     OW41886   7.805   1.246   1.464 -0.3956 -0.0609 -0.0570
13482SOL    HW141887   7.893   1.258   1.428 -0.4139  0.6020  0.1037
13482SOL    HW241888   7.808   1.162   1.509 -0.5823 -1.3405 -2.2473
13483SOL     OW41889   3.714   7.469  10.112  0.0381  0.6304 -0.1341
13483SOL    HW141890   3.627   7.507  10.124 -0.3857 -0.1854 -0.5191
13483SOL    HW241891   3.774   7.543  10.120 -0.5231  0.9336  2.0970
13484SOL     OW41892   4.932   4.580  12.070  0.0935 -0.0026 -0.0634
13484SOL    HW141893   4.949   4.486  12.060 -0.1743 -0.2576  1.6505
13484SOL    HW241894   4.845   4.593  12.034 -0.0428 -0.4937  0.0860
13485SOL     OW41895   0.625   6.302   4.195  0.3054  0.2736  0.4747
13485SOL    HW141896   0.715   6.320   4.222  0.9617 -1.3384 -0.5454
13485SOL    HW241897   0.633   6.263   4.109 -1.2436 -1.6065  1.1207
13486SOL     OW41898   1.748   6.406   8.684 -0.0803  0.2985 -0.6117
13486SOL    HW141899   1.821   6.432   8.740 -0.2347  0.4441 -0.4743
13486SOL    HW241900   1.670   6.428   8.736 -0.2137 -0.6404 -0.3985
13487SOL     OW41901   0.754   3.882   6.454 -0.5686  0.1199 -0.1943
13487SOL    HW141902   0.799   3.913   6.375 -2.3486 -0.0076 -1.3020
13487SOL    HW241903   0.707   3.958   6.487  0.0871  0.1484  0.7421
13488SOL     OW41904   1.412   4.776   5.266  0.3603 -0.0531  0.1918
13488SOL    HW141905   1.489   4.819   5.230 -0.2755 -0.0155 -1.1988
13488SOL    HW241906   1.394   4.703   5.206  0.3717 -1.1986  1.5163
13489SOL     OW41907   2.055   4.349   3.111 -0.4658  0.3899  0.0875
13489SOL    HW141908   2.093   4.433   3.088 -2.7863  1.3381 -0.6011
13489SOL    HW241909   2.021   4.361   3.200 -1.0417  0.2724 -0.1143
13490SOL     OW41910   0.717   3.068   0.069  0.5452  0.3275 -0.5993
13490SOL    HW141911   0.789   3.080   0.006  1.3568 -0.7631  0.0958
13490SOL    HW241912   0.757   3.081   0.155 -0.4133  1.1211 -0.2426
13491SOL     OW41913   3.144   1.824   1.520 -0.1401 -0.3135 -0.2009
13491SOL    HW141914   3.088   1.797   1.447  1.0821 -2.2284 -0.5097
13491SOL    HW241915   3.231   1.830   1.482  0.0955  1.4819  0.5216
13492SOL     OW41916   4.385   6.215   8.398  0.1334  0.4867 -0.0664
13492SOL    HW141917   4.375   6.304   8.433  1.0211  0.3966  0.4559
13492SOL    HW241918   4.295   6.182   8.390 -0.1492  0.9421  1.0319
13493SOL     OW41919   7.067   5.301   3.500  0.0186  0.5058  0.1032
13493SOL    HW141920   7.010   5.353   3.557 -1.4277 -0.6840 -0.2024
13493SOL    HW241921   7.029   5.311   3.413  0.0947 -0.5322 -0.0613
13494SOL     OW41922   1.632   6.822   0.202  0.4535  0.7235  0.2384
13494SOL    HW141923   1.697   6.758   0.173 -0.2943  0.3763 -0.7486
13494SOL    HW241924   1.548   6.779   0.189 -0.0448  1.7034  0.0847
13495SOL     OW41925   3.613   1.123   9.086  0.3452  0.1886 -0.1123
13495SOL    HW141926   3.680   1.152   9.148  0.1391  0.3187  0.0554
13495SOL    HW241927   3.588   1.036   9.117  0.4470  0.1360 -0.1813
13496SOL     OW41928   3.729   5.120  11.786 -0.3750 -0.0549 -0.8534
13496SOL    HW141929   3.700   5.152  11.872  0.1662  0.1843 -0.7508
13496SOL    HW241930   3.773   5.196  11.747  0.9126 -0.6572 -0.6157
13497SOL     OW41931   3.070   0.463   9.323  0.7567  0.5925  0.0135
13497SOL    HW141932   3.152   0.512   9.322  0.5128  1.0439 -2.0996
13497SOL    HW241933   3.088   0.383   9.274 -0.6338  1.8879 -2.9063
13498SOL     OW41934   2.675   4.760   2.753  0.0245 -0.3686 -0.4817
13498SOL    HW141935   2.704   4.756   2.662  0.9317  0.6046 -0.2477
13498SOL    HW241936   2.720   4.836   2.790 -1.2981  0.0123  0.4441
13499SOL     OW41937   2.895   1.346  12.218  0.3990  0.3028  0.1314
13499SOL    HW141938   2.952   1.396  12.276  2.1664 -0.5372 -0.8172
13499SOL    HW241939   2.932   1.257  12.218 -0.2070  0.0215 -1.4092
13500SOL     OW41940   3.841   4.083   3.738  0.1689  0.4270  0.4941
13500SOL    HW141941   3.881   4.090   3.651 -0.7301 -1.1965 -0.1064
13500SOL    HW241942   3.900   4.131   3.796  0.1885  2.5855 -1.1747
13501SOL     OW41943   5.340   7.572  10.077  0.4956 -0.0210 -0.1152
13501SOL    HW141944   5.250   7.548  10.100  0.8092 -0.0880  1.1225
13501SOL    HW241945   5.362   7.643  10.137  1.6965 -0.8588  0.4917
13502SOL     OW41946   7.482   1.142   9.789 -0.9039 -0.2328 -0.3741
13502SOL    HW141947   7.530   1.146   9.706  0.5382 -3.3548  0.1872
13502SOL    HW241948   7.509   1.222   9.836  1.8459 -0.6100 -1.1273
13503SOL     OW41949   7.830   2.486   4.227  0.2782  0.1283  0.1187
13503SOL    HW141950   7.869   2.443   4.303  0.6355  2.0196  1.0794
13503SOL    HW241951   7.897   2.479   4.159  2.3360  2.9089  1.6053
13504SOL     OW41952   6.952   3.993   2.130  0.2082 -0.1673  0.1571
13504SOL    HW141953   6.874   3.967   2.180 -0.3278  0.1284 -0.5075
13504SOL    HW241954   7.014   3.921   2.144 -1.1361 -1.7509 -1.3898
13505SOL     OW41955   4.351   0.846  12.087  0.2954  0.0512 -0.4012
13505SOL    HW141956   4.302   0.856  12.169  0.1001 -0.5844 -0.4400
13505SOL    HW241957   4.290   0.803  12.027  0.8948 -0.7505 -0.4507
13506SOL     OW41958   0.624   2.010   7.701 -0.1385  0.5359 -0.2398
13506SOL    HW141959   0.646   2.027   7.792  0.9788  2.7430 -0.8546
13506SOL    HW241960   0.676   1.932   7.678 -0.8861 -0.4016  1.1172
13507SOL     OW41961   1.617   0.070   9.176 -0.1816  0.3151  0.4179
13507SOL    HW141962   1.547   0.097   9.116  2.1082  2.4072 -1.5398
13507SOL    HW241963   1.587   0.099   9.263 -1.4857  1.7106 -0.4519
13508SOL     OW41964   6.858   3.519   9.781 -0.2859 -0.0738  0.5227
13508SOL    HW141965   6.866   3.514   9.876 -1.1401  1.5182  0.7222
13508SOL    HW241966   6.939   3.481   9.747  1.0356  1.3193  1.9524
13509SOL     OW41967   1.068   1.858   0.772  0.2093  0.0703 -0.2785
13509SOL    HW141968   1.112   1.782   0.733  0.2657 -0.2229  0.3417
13509SOL    HW241969   0.978   1.829   0.785  0.5165 -0.3507  1.1182
13510SOL     OW41970   6.520   1.897   3.239  0.0274  0.3689 -0.2744
13510SOL    HW141971   6.559   1.922   3.322  0.3351  0.9201 -0.5831
13510SOL    HW241972   6.478   1.977   3.207 -0.7427 -0.0284 -0.2933
13511SOL     OW41973   2.021   7.043   1.215 -0.2841 -0.3608 -0.6194
13511SOL    HW141974   2.089   7.106   1.238 -0.1433 -0.7611  0.1009
13511SOL    HW241975   2.000   7.062   1.124  2.4148 -1.6920 -1.6296
13512SOL     OW41976   3.624   0.279   9.673 -0.0089 -0.1787 -0.0506
13512SOL    HW141977   3.639   0.285   9.768 -2.1167 -0.0215  0.3244
13512SOL    HW241978   3.683   0.344   9.635  0.8441 -0.2178  1.1597
13513SOL     OW41979   4.204   7.745  12.049  0.1276 -0.4425  0.1391
13513SOL    HW141980   4.141   7.725  11.980 -0.8345  0.5044  0.7151
13513SOL    HW241981   4.151   7.753  12.129  1.2935 -2.1763  1.1469
13514SOL     OW41982   6.626   3.415   0.878 -0.4135 -0.4492  0.2068
13514SOL    HW141983   6.593   3.504   0.862 -0.5728 -0.5220  0.1361
13514SOL    HW241984   6.691   3.427   0.948 -0.3678 -0.2639  0.1344
13515SOL     OW41985   7.889   2.196  11.136 -0.2288  0.4143 -0.1550
13515SOL    HW141986   7.867   2.228  11.223  0.7902 -0.7948  0.5877
13515SOL    HW241987   7.972   2.149  11.148  0.5248  1.1858 -1.9962
13516SOL     OW41988   5.822   7.155   8.956  0.2122  0.1602 -0.1798
13516SOL    HW141989   5.895   7.171   8.896  1.9127 -0.1804  1.6967
13516SOL    HW241990   5.745   7.155   8.900  1.7230 -0.3569 -2.4039
13517SOL     OW41991   3.911   5.746   8.489  0.2777  0.2573 -0.1116
13517SOL    HW141992   3.821   5.725   8.515  0.6352 -0.2326  0.7954
13517SOL    HW241993   3.929   5.687   8.416 -0.3099  0.7179 -0.6303
13518SOL     OW41994   6.346   0.665   8.894  0.0215  0.0367 -0.8584
13518SOL    HW141995   6.342   0.724   8.969 -1.8961 -0.5233 -0.4590
13518SOL    HW241996   6.255   0.638   8.880  0.0505  1.0965 -4.1674
13519SOL     OW41997   1.159   0.083   4.540  0.0540  0.6879  0.5599
13519SOL    HW141998   1.186   0.045   4.456 -0.5581  0.9291  0.2439
13519SOL    HW241999   1.236   0.076   4.596  0.9739  1.8861 -0.4919
13520SOL     OW42000   1.489   3.306   1.564  0.0436  0.1551  0.5029
13520SOL    HW142001   1.417   3.270   1.615 -0.7030 -0.2533 -0.8051
13520SOL    HW242002   1.474   3.400   1.565 -0.4427  0.0823  0.3342
13521SOL     OW42003   3.990   5.995   1.963 -0.3116  0.4773  0.2689
13521SOL    HW142004   3.936   6.011   2.040 -1.4802 -0.6326 -0.2868
13521SOL    HW242005   4.032   5.911   1.980 -1.1401 -0.1322 -0.5851
13522SOL     OW42006   2.007   7.506   2.110  0.6722  0.2335 -0.1500
13522SOL    HW142007   1.973   7.559   2.038 -0.6152 -0.2653  0.0562
13522SOL    HW242008   2.043   7.569   2.172  2.8045  0.6304 -1.6785
13523SOL     OW42009   2.688   5.120   9.676 -0.6475 -0.3244 -0.2489
13523SOL    HW142010   2.694   5.212   9.650  0.3644  0.1733  1.5737
13523SOL    HW242011   2.689   5.072   9.594 -0.2913  1.2555 -1.2157
13524SOL     OW42012   1.368   2.889   3.322  0.2499 -0.0817 -0.1361
13524SOL    HW142013   1.411   2.887   3.237 -1.0309 -1.8859 -0.7947
13524SOL    HW242014   1.436   2.863   3.385  0.9134  0.1760 -0.7385
13525SOL     OW42015   6.358   0.744   1.504 -0.0237 -0.2236 -0.3613
13525SOL    HW142016   6.451   0.733   1.484 -0.1345  0.5170 -1.3794
13525SOL    HW242017   6.314   0.680   1.449 -0.1344 -0.3725 -0.0990
13526SOL     OW42018   4.429   2.999   5.284  0.2875 -0.3447  0.1100
13526SOL    HW142019   4.420   3.092   5.265  1.0952  0.0170  1.3317
13526SOL    HW242020   4.341   2.970   5.308 -0.0924 -0.0613 -0.9259
13527SOL     OW42021   7.829   0.406   0.538  0.5795 -0.1466 -0.9199
13527SOL    HW142022   7.748   0.416   0.489  1.1085 -0.8305 -1.9663
13527SOL    HW242023   7.803   0.357   0.617  0.0396 -0.7498 -1.4539
13528SOL     OW42024   3.865   7.152   0.042  0.0474  0.1832 -0.0060
13528SOL    HW142025   3.793   7.173  -0.018 -0.6393  3.1447  1.6404
13528SOL    HW242026   3.823   7.105   0.114 -0.0852  1.0912  0.5162
13529SOL     OW42027   5.804   6.515   5.511  0.7167 -0.4335 -0.2651
13529SOL    HW142028   5.716   6.512   5.474  0.9496  0.0824 -0.8756
13529SOL    HW242029   5.848   6.438   5.477  0.5649 -0.5864 -0.1164
13530SOL     OW42030   6.619   1.721  11.868 -0.5351  0.2946 -0.1043
13530SOL    HW142031   6.610   1.637  11.822  0.4060 -0.3918  0.9059
13530SOL    HW242032   6.652   1.697  11.955 -0.1985  1.7258  0.1881
13531SOL     OW42033   1.271   2.616   0.145  0.4033 -0.3109  0.2362
13531SOL    HW142034   1.217   2.605   0.224 -1.0482  0.4946 -0.5977
13531SOL    HW242035   1.208   2.611   0.073  1.7064 -1.0966 -0.8944
13532SOL     OW42036   1.285   7.215  10.851  0.2951 -0.2940 -0.1930
13532SOL    HW142037   1.311   7.139  10.799 -0.3719 -0.1852 -0.7104
13532SOL    HW242038   1.250   7.277  10.786  1.2284  0.6423  0.1631
13533SOL     OW42039   3.517   7.467   3.230 -0.2737  0.2955 -0.3718
13533SOL    HW142040   3.449   7.482   3.296  0.9996  1.6788  0.6775
13533SOL    HW242041   3.538   7.374   3.238 -0.8435  0.2315  0.4881
13534SOL     OW42042   5.520   3.644   7.252 -0.1710 -0.3819  0.4744
13534SOL    HW142043   5.610   3.670   7.275  0.6256 -1.9286 -0.7612
13534SOL    HW242044   5.469   3.665   7.331  1.1719  0.9323  1.0500
13535SOL     OW42045   1.136   2.344   3.106 -0.2126  0.2510  0.1705
13535SOL    HW142046   1.093   2.297   3.034  1.7969 -0.2655 -0.7689
13535SOL    HW242047   1.166   2.426   3.067 -1.2949  1.1281  1.1068
13536SOL     OW42048   0.039   4.373   6.543  0.1821  0.6571 -0.2105
13536SOL    HW142049  -0.026   4.329   6.487 -0.0319  0.9305 -0.1797
13536SOL    HW242050  -0.014   4.424   6.604  0.3854 -0.3485  0.8392
13537SOL     OW42051   5.887   5.964   5.683  0.1457  0.1374 -0.5601
13537SOL    HW142052   5.919   6.054   5.687  1.6231 -0.3511 -0.8030
13537SOL    HW242053   5.859   5.944   5.773  1.7576  0.1865 -0.0167
13538SOL     OW42054   0.323   2.508   4.935 -0.0138  0.4727 -0.0281
13538SOL    HW142055   0.257   2.440   4.919 -0.3102 -0.1457  3.1537
13538SOL    HW242056   0.407   2.465   4.918 -0.2659 -0.2695  0.5464
13539SOL     OW42057   2.280   2.463   8.684  0.1672 -0.0647  0.2836
13539SOL    HW142058   2.290   2.458   8.589 -0.7576 -0.6659  0.2055
13539SOL    HW242059   2.319   2.547   8.708  0.8656 -0.1365 -0.5604
13540SOL     OW42060   0.722   6.926   8.299  0.2627 -0.2263  0.6858
13540SOL    HW142061   0.767   6.930   8.384  1.2469 -0.1004  0.1751
13540SOL    HW242062   0.664   6.851   8.306  1.9104 -1.5557  0.7383
13541SOL     OW42063   4.075   3.975  10.447  0.2570 -0.2151  0.7467
13541SOL    HW142064   4.110   3.904  10.501 -0.1626 -1.2896 -0.3383
13541SOL    HW242065   4.094   3.949  10.357  0.4444  1.2628  0.3328
13542SOL     OW42066   2.078   0.419   8.987 -0.0511  0.1509  0.6464
13542SOL    HW142067   2.143   0.433   8.918  0.5402 -1.0285  0.9522
13542SOL    HW242068   2.114   0.465   9.063  0.1257  0.0155  0.6447
13543SOL     OW42069   0.933   5.612   5.978  0.2425 -0.1835 -0.3206
13543SOL    HW142070   0.876   5.671   6.026 -0.8003 -0.2612 -1.4183
13543SOL    HW242071   1.016   5.658   5.972 -0.6470  1.3236 -1.4365
13544SOL     OW42072   2.235   5.708   6.006 -0.9807 -0.1870 -0.5209
13544SOL    HW142073   2.232   5.671   5.918 -0.9855  1.8595 -1.4374
13544SOL    HW242074   2.273   5.638   6.060 -1.3457 -1.6241 -2.0497
13545SOL     OW42075   2.292   7.858   0.562  0.3902 -0.2645  0.2049
13545SOL    HW142076   2.256   7.944   0.585 -0.0435 -0.5873  0.7938
13545SOL    HW242077   2.316   7.820   0.646  0.5279 -0.7379 -0.0481
13546SOL     OW42078   2.099   0.900   5.251  0.5821 -0.1585  0.2588
13546SOL    HW142079   2.153   0.979   5.261  1.7668 -1.0996  1.5299
13546SOL    HW242080   2.017   0.922   5.296  1.3048  0.0022  1.5556
13547SOL     OW42081   5.261   7.681  11.533 -0.1386 -0.0879 -0.4447
13547SOL    HW142082   5.311   7.601  11.549 -0.6850 -0.1054  1.4780
13547SOL    HW242083   5.288   7.710  11.446  1.1661 -1.5573 -0.5649
13548SOL     OW42084   0.082   0.245   0.404 -0.1221 -0.5291  0.3652
13548SOL    HW142085   0.020   0.287   0.464  0.0185  0.7159 -0.3345
13548SOL    HW242086   0.047   0.157   0.391 -1.5420  0.0281  0.2696
13549SOL     OW42087   4.993   5.399   2.927 -0.2968 -0.2005 -0.4335
13549SOL    HW142088   5.020   5.309   2.910  0.7210 -0.0190  0.1446
13549SOL    HW242089   5.000   5.442   2.842  2.3769  0.1055 -0.1457
13550SOL     OW42090   7.809   2.646   4.748 -0.4837  0.0605  0.3474
13550SOL    HW142091   7.749   2.690   4.688 -0.2840 -0.4544 -0.2498
13550SOL    HW242092   7.873   2.603   4.690 -0.4701 -0.7072  0.9121
13551SOL     OW42093   6.861   3.537   8.330  0.0188  0.0703 -0.0640
13551SOL    HW142094   6.845   3.444   8.310  0.2382 -0.2250  1.0704
13551SOL    HW242095   6.823   3.584   8.256 -0.4132 -0.9147 -0.4872
13552SOL     OW42096   3.705   1.980   2.774  0.3760  0.8153 -0.1173
13552SOL    HW142097   3.764   1.990   2.700  1.5423  1.0519  0.8262
13552SOL    HW242098   3.628   1.935   2.737  0.8930  1.0017 -1.4693
13553SOL     OW42099   4.014   6.849   3.324 -0.6395 -0.3139 -0.2651
13553SOL    HW142100   3.947   6.915   3.341 -1.2144 -0.6862 -1.0420
13553SOL    HW242101   3.990   6.812   3.239  0.2609 -0.8101 -0.3075
13554SOL     OW42102   1.981   2.047   5.555 -0.3013 -0.3776 -0.1530
13554SOL    HW142103   2.063   2.027   5.510 -1.3779 -1.4129 -1.7672
13554SOL    HW242104   2.006   2.105   5.626  1.8363 -0.7372 -0.5515
13555SOL     OW42105   0.335   0.619   0.780 -0.3486  0.4853 -0.2112
13555SOL    HW142106   0.336   0.654   0.691  1.3037  0.7422 -0.1197
13555SOL    HW242107   0.419   0.645   0.817 -0.4651 -0.7275  0.9878
13556SOL     OW42108   5.168   0.390   2.606  0.0385  0.4025 -0.1488
13556SOL    HW142109   5.169   0.483   2.585  1.4993  0.0859 -1.6680
13556SOL    HW242110   5.255   0.374   2.644 -0.6172 -0.1373  1.1897
13557SOL     OW42111   3.397   2.855  10.251  0.0428 -0.0709  0.0830
13557SOL    HW142112   3.483   2.895  10.245  0.5293 -1.2090 -1.1177
13557SOL    HW242113   3.414   2.761  10.256 -1.0928 -0.2273  1.5751
13558SOL     OW42114   5.599   2.274   3.405 -0.2891 -0.9209  0.2613
13558SOL    HW142115   5.515   2.312   3.381  0.8389  1.6145  0.0422
13558SOL    HW242116   5.638   2.248   3.321 -0.1938 -0.6514  0.2234
13559SOL     OW42117   4.009   7.068   7.973 -0.0069 -0.2073  0.4476
13559SOL    HW142118   4.087   7.088   7.922 -1.3205  0.4371 -1.3907
13559SOL    HW242119   4.023   6.979   8.006  1.2684 -0.2803 -0.2678
13560SOL     OW42120   5.666   2.342   4.101 -0.2555 -0.4061  0.0022
13560SOL    HW142121   5.672   2.286   4.024 -0.7975 -0.2376 -0.1689
13560SOL    HW242122   5.750   2.331   4.146 -0.1218 -0.8775 -0.3558
13561SOL     OW42123   0.590   0.243  10.832 -0.3380 -0.6518  0.1757
13561SOL    HW142124   0.525   0.262  10.900 -0.1767 -0.4467  0.2740
13561SOL    HW242125   0.562   0.295  10.757 -0.1711 -0.3974  0.2874
13562SOL     OW42126   1.793   6.132  10.989  0.3148  0.3290  0.1873
13562SOL    HW142127   1.708   6.114  10.949  0.4323  0.4488 -0.1187
13562SOL    HW242128   1.857   6.107  10.922  0.5535 -0.7520  0.7970
13563SOL     OW42129   5.190   4.098   4.113 -0.5946 -0.2692  0.8886
13563SOL    HW142130   5.198   4.003   4.112 -0.4513 -0.2562 -0.2280
13563SOL    HW242131   5.234   4.127   4.034  0.5945  0.8419  1.9033
13564SOL     OW42132   1.570   4.451   7.309  0.2921  0.5422  0.3819
13564SOL    HW142133   1.583   4.517   7.241 -1.0955 -2.5519 -3.2328
13564SOL    HW242134   1.650   4.398   7.307  1.7426  2.3089  3.8012
13565SOL     OW42135   7.455   7.551   8.463  0.5830  0.7477 -0.3878
13565SOL    HW142136   7.364   7.552   8.492  0.8098  0.0781  0.3794
13565SOL    HW242137   7.457   7.489   8.389  0.7545 -0.7636  0.8332
13566SOL     OW42138   2.859   1.771  11.591  0.4539  0.1378 -0.0913
13566SOL    HW142139   2.844   1.808  11.504 -0.3719 -1.4251 -0.6581
13566SOL    HW242140   2.805   1.692  11.593  0.1060  0.3694  2.0171
13567SOL     OW42141   6.788   7.495   5.183 -0.3207 -0.0657  0.3326
13567SOL    HW142142   6.817   7.578   5.221  0.3582  0.5389 -1.4056
13567SOL    HW242143   6.740   7.453   5.254 -1.3379  2.1242  1.0527
13568SOL     OW42144   5.734   0.229   4.170  0.3777 -0.5561 -0.1486
13568SOL    HW142145   5.740   0.202   4.261 -0.0787  0.3142  0.1551
13568SOL    HW242146   5.774   0.158   4.120  2.6539 -0.0832  0.8819
13569SOL     OW42147   4.506   4.322   5.274 -0.5541  0.1704  0.9949
13569SOL    HW142148   4.567   4.277   5.215 -1.2334 -0.0995  0.4796
13569SOL    HW242149   4.428   4.266   5.274 -1.5568  1.5037  0.0573
13570SOL     OW42150   5.552   1.619   0.255  0.1781  0.3217 -0.1789
13570SOL    HW142151   5.530   1.708   0.284  1.2688  0.5669 -0.0397
13570SOL    HW242152   5.532   1.619   0.162  1.2888  1.1296 -0.4509
13571SOL     OW42153   7.536   2.415   6.461  0.2554  0.1595 -0.3018
13571SOL    HW142154   7.630   2.426   6.442  0.3505  1.1746  0.6484
13571SOL    HW242155   7.492   2.438   6.379  0.7669  1.6369 -0.1955
13572SOL     OW42156   1.412   3.159   1.998 -0.2087 -0.0365  0.4019
13572SOL    HW142157   1.352   3.174   1.925 -1.0932 -2.6745  0.4811
13572SOL    HW242158   1.368   3.198   2.073 -1.4124 -1.0937  0.2772
13573SOL     OW42159   0.194   4.155   4.606 -0.4632  0.0999  0.2776
13573SOL    HW142160   0.281   4.194   4.601 -0.6334  0.3927 -0.4690
13573SOL    HW242161   0.210   4.060   4.605 -0.1501  0.1527  0.3399
13574SOL     OW42162   7.872   7.834   0.792  0.5077 -0.2644  0.0019
13574SOL    HW142163   7.957   7.791   0.792  1.1784  0.9664 -1.8083
13574SOL    HW242164   7.874   7.891   0.716 -2.4551 -1.1648 -0.8745
13575SOL     OW42165   4.460   1.040   1.749  0.3227 -0.1217 -0.2301
13575SOL    HW142166   4.456   1.046   1.845 -0.1730 -1.1742 -0.1720
13575SOL    HW242167   4.534   0.982   1.732  0.1619 -0.2545 -0.4716
13576SOL     OW42168   2.401   1.210  11.571  0.0302 -0.1109 -0.2098
13576SOL    HW142169   2.339   1.156  11.620 -0.1922 -0.8912 -1.2914
13576SOL    HW242170   2.356   1.294  11.558 -0.4457 -0.3661 -0.2178
13577SOL     OW42171   6.710   0.511   5.768  0.0746 -0.0797  0.2245
13577SOL    HW142172   6.712   0.491   5.862  0.1937  0.1193  0.2661
13577SOL    HW242173   6.799   0.493   5.738  0.3226  0.8325  0.3640
13578SOL     OW42174   0.025   0.067   9.731  0.3731  0.4565  0.0921
13578SOL    HW142175   0.089   0.128   9.767  0.0243  2.4336 -2.4016
13578SOL    HW242176  -0.015   0.114   9.658 -2.4431 -1.4822  0.2271
13579SOL     OW42177   5.384   1.568   7.455 -0.2938  0.1326  0.0956
13579SOL    HW142178   5.459   1.554   7.512 -0.5513  0.1809  0.4566
13579SOL    HW242179   5.340   1.644   7.492 -0.4963  0.1299 -0.1348
13580SOL     OW42180   1.622   2.579   7.167  0.1905  0.1278  0.1607
13580SOL    HW142181   1.693   2.517   7.186  0.5864  0.1556 -1.1555
13580SOL    HW242182   1.661   2.641   7.106 -1.6425 -1.3599 -2.7305
13581SOL     OW42183   2.803   2.062   7.685 -0.2861  0.4673 -0.1744
13581SOL    HW142184   2.709   2.053   7.673  0.0643 -0.6124 -2.5697
13581SOL    HW242185   2.833   2.110   7.608  1.0487  1.5436  0.9602
13582SOL     OW42186   5.829   3.885   4.691  0.0100 -0.1656 -0.2638
13582SOL    HW142187   5.836   3.920   4.602  0.1509  1.2540  0.2677
13582SOL    HW242188   5.918   3.858   4.713  0.2788  0.8053 -0.0760
13583SOL     OW42189   0.788   7.535  11.234  0.3220 -0.4680 -0.1182
13583SOL    HW142190   0.852   7.482  11.186 -0.1365 -0.7398 -0.4304
13583SOL    HW242191   0.705   7.491  11.221  0.0612 -0.1045  0.2770
13584SOL     OW42192   1.055   7.487   0.822  0.4253 -0.3002 -0.3903
13584SOL    HW142193   1.138   7.532   0.808  0.3457 -0.0649 -0.1076
13584SOL    HW242194   1.072   7.429   0.897  0.8218 -1.4827 -1.3598
13585SOL     OW42195   3.420   4.702   9.400 -0.1880 -0.7188 -0.8930
13585SOL    HW142196   3.509   4.671   9.419 -0.6654 -1.2208  0.6808
13585SOL    HW242197   3.377   4.703   9.486 -2.1846 -2.0743 -1.8124
13586SOL     OW42198   1.628   4.190   7.948 -0.5309  0.0207 -0.4549
13586SOL    HW142199   1.634   4.275   7.992  0.8327 -0.3539  0.1607
13586SOL    HW242200   1.535   4.172   7.942 -0.7973  0.8879  0.7387
13587SOL     OW42201   0.225   1.620   7.559 -0.2649  0.1744  0.1487
13587SOL    HW142202   0.298   1.588   7.507 -0.7540 -0.4753 -0.1579
13587SOL    HW242203   0.166   1.545   7.566  0.2135 -0.0813  2.4572
13588SOL     OW42204   0.499   4.299   7.749  0.2826 -0.1934  0.0035
13588SOL    HW142205   0.514   4.352   7.827 -0.2330  1.2781 -0.8560
13588SOL    HW242206   0.545   4.217   7.766  1.6675  0.7722  1.1207
13589SOL     OW42207   6.405   5.663  11.541 -0.3083  0.6875 -0.3950
13589SOL    HW142208   6.354   5.606  11.482 -0.6324 -0.2871  0.7894
13589SOL    HW242209   6.346   5.681  11.614  0.4896  0.9069  0.2044
13590SOL     OW42210   6.765   0.187   5.198 -0.0179 -0.0008  0.1010
13590SOL    HW142211   6.704   0.169   5.127  0.6527 -1.4480 -0.1408
13590SOL    HW242212   6.789   0.101   5.233  1.3410  0.5528  0.6403
13591SOL     OW42213   5.770   6.746   5.819 -0.5245  0.0950  0.4482
13591SOL    HW142214   5.696   6.761   5.760 -1.0160 -1.2488  0.6867
13591SOL    HW242215   5.771   6.823   5.876 -1.0130  0.6702 -0.2935
13592SOL     OW42216   4.643   0.942   5.048  0.4840  0.1448  0.5067
13592SOL    HW142217   4.638   1.035   5.071  0.5932 -0.3432  2.7697
13592SOL    HW242218   4.575   0.930   4.982  0.0466  1.7213  0.6303
13593SOL     OW42219   5.861   5.828   3.833  0.1913  0.3506 -0.4198
13593SOL    HW142220   5.922   5.838   3.760 -0.0090 -0.0797 -0.6486
13593SOL    HW242221   5.903   5.875   3.905  1.3271 -0.8277 -0.2676
13594SOL     OW42222   4.374   5.587   6.660 -0.0869 -0.1225 -0.1796
13594SOL    HW142223   4.407   5.525   6.725  0.6046  0.5397  0.1001
13594SOL    HW242224   4.353   5.665   6.710  2.4615  1.1834 -0.9870
13595SOL     OW42225   4.537   2.619  11.033  0.9138  0.1406  0.4443
13595SOL    HW142226   4.590   2.555  11.081  1.3457 -0.1293 -0.3660
13595SOL    HW242227   4.576   2.620  10.945 -1.0056 -0.7581 -0.4658
13596SOL     OW42228   7.170   4.837   1.937 -0.0938  0.4623  0.6408
13596SOL    HW142229   7.082   4.860   1.968 -0.0886  1.2165  0.1420
13596SOL    HW242230   7.166   4.851   1.842  0.2240 -0.6668  0.4465
13597SOL     OW42231   6.214   2.578   0.009 -0.4809  0.5155 -0.0443
13597SOL    HW142232   6.255   2.529   0.080 -1.2206 -0.0457  0.0115
13597SOL    HW242233   6.205   2.667   0.043  0.2487  0.5335  0.1125
13598SOL     OW42234   4.898   0.001   9.956  0.3801 -0.1877  0.0214
13598SOL    HW142235   4.809   0.020   9.988  0.3648 -0.8111  0.3633
13598SOL    HW242236   4.905   0.050   9.874  0.4381  1.4881  0.9840
13599SOL     OW42237   5.906   1.497  10.294  0.2297 -0.5851 -0.0237
13599SOL    HW142238   5.942   1.415  10.328  0.4190  0.1610  1.6748
13599SOL    HW242239   5.910   1.487  10.199  0.8852 -2.2561  0.1390
13600SOL     OW42240   0.563   4.484   9.799 -0.2350 -0.0372  0.6077
13600SOL    HW142241   0.558   4.401   9.751 -0.1438 -0.0697  0.6555
13600SOL    HW242242   0.596   4.547   9.734 -0.5227  0.0127  0.5068
13601SOL     OW42243   4.298   2.918   8.070  1.0336  0.0326 -0.2702
13601SOL    HW142244   4.364   2.978   8.034  0.4545  0.8648  0.0142
13601SOL    HW242245   4.261   2.965   8.144 -1.7018  0.7658 -1.9520
13602SOL     OW42246   6.140   2.958  11.765 -0.2428 -0.6275  0.7991
13602SOL    HW142247   6.120   2.974  11.857  1.6776  0.8490  1.0202
13602SOL    HW242248   6.232   2.932  11.765 -0.0061  0.1077 -0.7637
13603SOL     OW42249   0.457   0.110   2.779 -0.2267 -0.4516  0.1518
13603SOL    HW142250   0.366   0.116   2.807  0.3078  0.8210  1.7497
13603SOL    HW242251   0.461   0.163   2.699 -1.0812 -1.4050 -0.5539
13604SOL     OW42252   4.199   1.152   2.206 -0.5051  0.9059 -0.1059
13604SOL    HW142253   4.183   1.075   2.260  1.6676 -0.6951 -1.5903
13604SOL    HW242254   4.119   1.163   2.155 -1.0897  0.0756  0.6002
13605SOL     OW42255   5.317   4.638   1.994 -0.4546 -0.3236  0.4558
13605SOL    HW142256   5.345   4.728   1.974 -0.1780  0.6925  4.5086
13605SOL    HW242257   5.225   4.648   2.021 -1.5797 -1.9372 -2.4031
13606SOL     OW42258   2.279   4.789   4.156  0.2254 -0.0546  0.1062
13606SOL    HW142259   2.194   4.804   4.198 -0.0121  0.4091 -0.5134
13606SOL    HW242260   2.328   4.736   4.219 -0.5572 -0.4133  0.4271
13607SOL     OW42261   5.534   7.568   9.169  1.0036  0.0661 -0.1879
13607SOL    HW142262   5.578   7.486   9.192  3.3315  0.7047 -1.9929
13607SOL    HW242263   5.500   7.553   9.081 -0.7885  0.2834  0.4079
13608SOL     OW42264   5.011   2.718   1.800  0.3760  0.0503 -0.1204
13608SOL    HW142265   4.996   2.660   1.875  2.4476  0.4373  0.6645
13608SOL    HW242266   4.996   2.663   1.723 -2.0396 -0.2906  0.5150
13609SOL     OW42267   4.015   6.524   8.314  0.3748 -0.3805 -0.1819
13609SOL    HW142268   3.984   6.548   8.227 -0.3158  1.1023  0.4486
13609SOL    HW242269   3.939   6.485   8.357  0.5215 -0.4666  0.0024
13610SOL     OW42270   6.653   3.174  11.053  0.0732 -0.8464 -0.1313
13610SOL    HW142271   6.587   3.205  11.114  0.5610  1.2593 -0.5858
13610SOL    HW242272   6.607   3.111  10.997 -1.2349 -0.2820  0.2847
13611SOL     OW42273   1.461   5.648  10.791  0.2476  0.0596  0.2084
13611SOL    HW142274   1.409   5.612  10.864  1.0173 -0.1686  0.6577
13611SOL    HW242275   1.448   5.586  10.720 -0.3548  0.1772  0.2070
13612SOL     OW42276   6.211   7.227   0.463  0.1944 -0.0542  0.0736
13612SOL    HW142277   6.210   7.131   0.470  1.4609 -0.0307  0.8866
13612SOL    HW242278   6.175   7.245   0.377 -1.0192 -1.2132  0.3162
13613SOL     OW42279   6.437   3.176   8.923  0.3235  0.1360  0.4517
13613SOL    HW142280   6.408   3.093   8.961  0.7077  0.3300  1.1847
13613SOL    HW242281   6.356   3.221   8.899  0.1141 -0.4993 -0.0615
13614SOL     OW42282   3.947   1.380   1.379 -0.3426  0.0137  0.2407
13614SOL    HW142283   3.897   1.462   1.388 -2.4368 -1.3686  2.6782
13614SOL    HW242284   3.910   1.338   1.302 -0.5780  0.5069  0.0746
13615SOL     OW42285   7.846   7.785  11.907 -0.7066 -0.1081  0.2873
13615SOL    HW142286   7.894   7.733  11.972 -1.9949 -1.2070  0.3953
13615SOL    HW242287   7.831   7.869  11.950  1.2890  0.3741  0.1659
13616SOL     OW42288   1.021   4.091   2.353 -0.0218  0.3496 -0.0053
13616SOL    HW142289   0.933   4.078   2.317  0.2608  1.3984 -1.1191
13616SOL    HW242290   1.078   4.096   2.277  1.2102 -1.4193  0.7288
13617SOL     OW42291   3.151   0.656   9.622  0.7493  0.1635 -0.5089
13617SOL    HW142292   3.243   0.637   9.637  0.2750 -0.2424  2.4861
13617SOL    HW242293   3.148   0.750   9.604  1.6596  0.3959  0.4758
13618SOL     OW42294   6.788   0.020   6.633  0.2782  0.0274  0.2500
13618SOL    HW142295   6.804  -0.066   6.671  1.3562 -0.0568 -0.3769
13618SOL    HW242296   6.868   0.070   6.652  0.6875  0.1020 -1.5544
13619SOL     OW42297   6.177   2.760   2.469  0.0676 -0.0358  0.4665
13619SOL    HW142298   6.110   2.825   2.491 -0.5719  0.8357 -3.4123
13619SOL    HW242299   6.229   2.801   2.400  1.2632 -2.7352 -0.3684
13620SOL     OW42300   3.939   0.157   4.706  0.1680 -0.1689 -0.3326
13620SOL    HW142301   3.844   0.155   4.700  0.1195 -0.6256  0.4982
13620SOL    HW242302   3.967   0.068   4.686  0.4760  0.1259 -1.2759
13621SOL     OW42303   1.387   6.242  10.338  0.7612 -0.8206  0.4675
13621SOL    HW142304   1.340   6.290  10.407  3.1803  1.6302  0.6079
13621SOL    HW242305   1.416   6.162  10.380 -2.4282 -2.0712  0.5873
13622SOL     OW42306   0.973   0.843   9.048 -0.0190 -0.3694  0.2494
13622SOL    HW142307   0.888   0.801   9.032 -0.0508 -0.9331  1.6598
13622SOL    HW242308   0.959   0.893   9.129  0.4468  1.1754 -0.6044
13623SOL     OW42309   2.841   6.461   7.396 -0.5398 -0.3036 -0.5979
13623SOL    HW142310   2.812   6.395   7.333 -0.2170  0.2031 -1.2983
13623SOL    HW242311   2.796   6.541   7.369 -0.2567 -0.0379 -0.2994
13624SOL     OW42312   1.143   6.433  11.004  0.4329 -0.3786 -0.3754
13624SOL    HW142313   1.176   6.515  11.042 -0.5441  0.1195 -0.5806
13624SOL    HW242314   1.060   6.417  11.049  0.8707 -1.5533  0.0460
13625SOL     OW42315   3.947   3.100   7.255 -0.0163 -0.1636 -0.5046
13625SOL    HW142316   3.874   3.160   7.270 -0.0705  0.1730 -1.9236
13625SOL    HW242317   4.012   3.153   7.207 -1.0976 -1.7842 -4.1198
13626SOL     OW42318   1.696   4.904   7.276 -0.0671  0.3118 -0.6726
13626SOL    HW142319   1.674   4.964   7.204  0.2491 -0.5180 -1.4867
13626SOL    HW242320   1.756   4.841   7.236 -0.0485 -0.2824  0.2814
13627SOL     OW42321   4.184   3.324   2.377  0.4233 -0.4488 -0.3545
13627SOL    HW142322   4.181   3.262   2.450 -1.6051  0.3324  0.3078
13627SOL    HW242323   4.257   3.382   2.398 -1.5195  1.2437  2.4350
13628SOL     OW42324   6.811   6.661   3.390 -0.0160  0.5193 -0.1335
13628SOL    HW142325   6.848   6.619   3.468  1.0013  1.3094 -0.1683
13628SOL    HW242326   6.814   6.755   3.410 -0.4845  0.6829 -0.8045
13629SOL     OW42327   0.412   2.131   2.306 -0.5188 -0.4211  0.2360
13629SOL    HW142328   0.471   2.191   2.260 -0.7094 -0.5545 -0.1898
13629SOL    HW242329   0.410   2.164   2.396  0.8451 -0.9062  0.4597
13630SOL     OW42330   1.366   0.801   2.505  0.1818 -0.4152  0.2657
13630SOL    HW142331   1.276   0.831   2.489  0.5853  1.8913  1.8328
13630SOL    HW242332   1.400   0.780   2.418 -1.6346 -0.7120 -0.4267
13631SOL     OW42333   3.658   4.014   5.036  0.1163  0.0497 -0.0225
13631SOL    HW142334   3.635   4.096   5.081  0.2146 -0.3918  0.8636
13631SOL    HW242335   3.600   4.011   4.961  1.2757  1.7810 -1.0615
13632SOL     OW42336   5.064   0.960   5.883  0.1294 -0.5227 -0.6339
13632SOL    HW142337   5.145   1.011   5.895 -0.1122 -0.2312 -0.1937
13632SOL    HW242338   5.077   0.883   5.937  0.3748 -0.7907 -1.0696
13633SOL     OW42339   5.497   0.079   2.253  0.0247 -0.4113 -0.3935
13633SOL    HW142340   5.588   0.094   2.281 -0.3587 -0.1792  0.7593
13633SOL    HW242341   5.454   0.163   2.265 -0.6760 -0.8659  0.3812
13634SOL     OW42342   2.569   0.974  11.370 -0.3738  0.2521 -0.1133
13634SOL    HW142343   2.572   0.951  11.463  0.0660 -0.5720 -0.3224
13634SOL    HW242344   2.481   1.012  11.358  0.2176  2.1225  1.0074
13635SOL     OW42345   5.852   7.318   5.049 -0.1300  0.1570 -0.0370
13635SOL    HW142346   5.841   7.363   4.965  1.3434 -1.3086 -1.0647
13635SOL    HW242347   5.825   7.228   5.031 -0.6240  0.0188  1.3234
13636SOL     OW42348   3.653   2.707  11.323  0.4764  0.4228  0.4183
13636SOL    HW142349   3.636   2.629  11.270  0.8784  1.2628 -1.0050
13636SOL    HW242350   3.726   2.682  11.380  1.4637  0.1282 -0.9240
13637SOL     OW42351   0.329   2.767   0.410  0.0808 -0.5954  0.1855
13637SOL    HW142352   0.296   2.854   0.387  0.4090 -0.5402 -0.0854
13637SOL    HW242353   0.297   2.752   0.499  0.5837  0.0831  0.4946
13638SOL     OW42354   6.260   6.441   1.436  0.3411 -0.2100 -0.0026
13638SOL    HW142355   6.273   6.353   1.400  1.5246 -0.1803  0.2932
13638SOL    HW242356   6.165   6.451   1.443  0.0757 -2.9903  3.6612
13639SOL     OW42357   2.584   2.623   2.180 -0.0244 -0.5588  0.1773
13639SOL    HW142358   2.616   2.710   2.200  0.3548 -0.4484 -0.8949
13639SOL    HW242359   2.494   2.636   2.150  0.3668 -0.4345 -0.9446
13640SOL     OW42360   0.683   6.452   4.940  0.0138 -0.7964  0.2799
13640SOL    HW142361   0.607   6.487   4.894 -0.7777 -0.7234  1.6228
13640SOL    HW242362   0.659   6.362   4.962  0.4688 -0.8934  0.3983
13641SOL     OW42363   3.211   6.876   3.302  0.7253 -0.6541  0.0983
13641SOL    HW142364   3.129   6.865   3.253  0.4565  0.5661  0.2375
13641SOL    HW242365   3.196   6.831   3.385  0.9792 -2.2515 -0.6863
13642SOL     OW42366   4.638   7.639   3.416 -0.0026  0.7644 -0.4439
13642SOL    HW142367   4.708   7.617   3.477 -0.1959  0.9705 -0.1488
13642SOL    HW242368   4.559   7.602   3.455 -0.3048  1.8388 -0.0251
13643SOL     OW42369   3.773   6.890   5.035 -0.0125  0.1577 -0.6578
13643SOL    HW142370   3.758   6.850   4.950  1.0859  0.3518 -0.9567
13643SOL    HW242371   3.755   6.983   5.022 -0.5026  0.0875 -0.5006
13644SOL     OW42372   6.050   1.547   9.326 -0.1507  0.3166  0.1938
13644SOL    HW142373   6.034   1.641   9.321 -0.7599  0.1670 -0.9873
13644SOL    HW242374   5.974   1.511   9.371 -0.1000  0.3433  0.3011
13645SOL     OW42375   1.709   0.613   2.414  0.4647  0.0357  1.2325
13645SOL    HW142376   1.802   0.592   2.408  0.4151  0.0761  0.1460
13645SOL    HW242377   1.702   0.700   2.374 -0.3036 -0.7602 -0.4395
13646SOL     OW42378   6.243   2.969   7.815  0.4949  0.7308  0.7266
13646SOL    HW142379   6.239   3.002   7.905  0.1605  1.8541  0.3239
13646SOL    HW242380   6.189   3.031   7.765  1.2545  0.5326 -0.3593
13647SOL     OW42381   1.638   6.379   2.254 -0.0641 -0.1920 -0.0421
13647SOL    HW142382   1.664   6.287   2.243  0.0833 -0.0409 -0.9950
13647SOL    HW242383   1.721   6.427   2.255 -0.1741  0.0044 -0.2954
13648SOL     OW42384   1.417   7.778   5.388  0.7831 -0.0703 -0.0397
13648SOL    HW142385   1.422   7.868   5.354  1.3217 -0.3810 -0.8213
13648SOL    HW242386   1.438   7.786   5.481 -1.5870  0.9320  0.4984
13649SOL     OW42387   0.424   1.105  11.259  0.3770  0.2883 -0.5914
13649SOL    HW142388   0.415   1.082  11.167  1.9691 -0.2306 -0.6446
13649SOL    HW242389   0.401   1.025  11.307  0.7120  0.1980 -0.5817
13650SOL     OW42390   4.510   2.323   1.320 -0.2492  0.0414 -0.1493
13650SOL    HW142391   4.556   2.397   1.359 -3.7119  3.0343 -1.1781
13650SOL    HW242392   4.535   2.326   1.227 -2.5449  1.9511 -0.8026
13651SOL     OW42393   0.608   7.568   7.393 -0.4609 -0.1702  0.4279
13651SOL    HW142394   0.616   7.496   7.331 -0.0969  0.5244 -0.3452
13651SOL    HW242395   0.696   7.603   7.401 -0.9195  1.2979 -0.5579
13652SOL     OW42396   4.370   4.256   2.094  0.3334  0.3871 -0.2635
13652SOL    HW142397   4.323   4.205   2.160 -1.1799  2.9577  0.8014
13652SOL    HW242398   4.301   4.299   2.043  1.4850 -0.7037 -2.9550
13653SOL     OW42399   4.325   1.720   0.251 -0.1148 -0.2077 -0.1389
13653SOL    HW142400   4.419   1.732   0.240 -0.0324  0.9063  1.4017
13653SOL    HW242401   4.285   1.774   0.183  0.3697  1.0544  0.5565
13654SOL     OW42402   5.678   1.104   7.257  0.7742  0.5250 -0.1795
13654SOL    HW142403   5.617   1.178   7.264 -0.6913 -0.7750  1.7159
13654SOL    HW242404   5.761   1.138   7.293 -0.0005  1.1536  1.0955
13655SOL     OW42405   7.791   2.303   4.839 -0.3129  0.3018 -0.3209
13655SOL    HW142406   7.751   2.353   4.910 -0.0417 -1.1916  0.9318
13655SOL    HW242407   7.743   2.221   4.838  2.0369 -1.1778  0.6096
13656SOL     OW42408   4.988   2.608  11.371 -0.5958 -0.0490 -0.1510
13656SOL    HW142409   5.040   2.551  11.314  0.2055  0.6154 -0.1008
13656SOL    HW242410   5.051   2.647  11.431 -1.3872 -0.5162  1.0232
13657SOL     OW42411   6.041   0.092   3.903  0.1946 -0.1013  0.4601
13657SOL    HW142412   6.099   0.168   3.907 -1.2074  0.9876  0.9804
13657SOL    HW242413   6.080   0.036   3.837  0.5743  1.6873 -0.9233
13658SOL     OW42414   7.530   3.548   1.529 -0.0042  0.0116 -0.7236
13658SOL    HW142415   7.525   3.484   1.458 -2.0671  0.7847 -1.3395
13658SOL    HW242416   7.459   3.523   1.589 -1.0819  1.8777 -1.1523
13659SOL     OW42417   3.048   6.156   1.375  0.1279 -1.0284 -0.4338
13659SOL    HW142418   3.014   6.245   1.365 -1.4541 -1.4592  0.6954
13659SOL    HW242419   3.031   6.114   1.291 -2.0404 -1.1535  0.0105
13660SOL     OW42420   1.143   5.005   4.639 -0.3031  0.8952  0.0895
13660SOL    HW142421   1.147   4.943   4.567 -3.8156  0.0666  0.4358
13660SOL    HW242422   1.192   5.081   4.608  0.2712 -0.3239 -2.1961
13661SOL     OW42423   3.054   0.622   9.868 -0.0950 -0.3206  0.6175
13661SOL    HW142424   3.117   0.573   9.921 -0.2344  1.6726  2.8264
13661SOL    HW242425   3.094   0.627   9.781  1.8458 -0.8022  1.4236
13662SOL     OW42426   3.659   4.425   2.324 -0.1236 -0.4119  0.5218
13662SOL    HW142427   3.595   4.463   2.264  0.5737 -0.1009 -0.0399
13662SOL    HW242428   3.625   4.446   2.411 -0.6050  0.0570  0.2309
13663SOL     OW42429   2.195   2.868  11.102  0.0623  0.0687 -0.3347
13663SOL    HW142430   2.243   2.894  11.022  0.4272 -0.4291 -0.2820
13663SOL    HW242431   2.191   2.773  11.097  1.1827 -0.0751  0.8527
13664SOL     OW42432   5.120   7.777   2.472 -0.2880 -0.1541  0.0634
13664SOL    HW142433   5.122   7.856   2.526  1.0972  0.9753 -1.5477
13664SOL    HW242434   5.047   7.725   2.507 -0.9083  1.5946  1.4705
13665SOL     OW42435   5.410   1.751   5.695  0.1186  0.3182  0.3214
13665SOL    HW142436   5.393   1.843   5.714 -0.7456  0.0041  1.1995
13665SOL    HW242437   5.486   1.729   5.749 -0.7655  0.0828  1.5091
13666SOL     OW42438   6.379   2.225   4.883 -0.0679 -0.4036 -0.4280
13666SOL    HW142439   6.401   2.143   4.841 -1.1725 -1.2429  0.5579
13666SOL    HW242440   6.283   2.224   4.890 -0.1276  1.0903 -0.6540
13667SOL     OW42441   4.187   6.248  11.876  0.2458  0.3402 -0.1751
13667SOL    HW142442   4.246   6.174  11.860  1.2468  0.9583  0.5298
13667SOL    HW242443   4.213   6.281  11.962 -1.5338  0.2853  0.4138
13668SOL     OW42444   5.418   3.107   2.172  0.1592 -0.0543 -0.1615
13668SOL    HW142445   5.373   3.181   2.214  0.6395 -0.1128  0.4687
13668SOL    HW242446   5.511   3.121   2.191  0.2540 -0.8341 -0.0027
13669SOL     OW42447   1.408   2.079   5.561 -0.1109 -0.3397  0.1609
13669SOL    HW142448   1.328   2.130   5.551 -1.2075 -1.8881  0.6291
13669SOL    HW242449   1.472   2.122   5.504 -0.9491  1.5643  0.6060
13670SOL     OW42450   1.557   4.489   0.758 -0.2291 -0.4529 -0.3420
13670SOL    HW142451   1.470   4.494   0.797 -0.2707  0.1417 -0.5075
13670SOL    HW242452   1.577   4.395   0.756 -0.7068 -0.5652  0.0391
13671SOL     OW42453   1.781   3.582   4.515 -0.0739  0.6856 -0.1034
13671SOL    HW142454   1.841   3.523   4.470  0.5214 -0.0648  1.5971
13671SOL    HW242455   1.816   3.588   4.604 -2.0482  0.8899  0.7027
13672SOL     OW42456   6.832   5.365   8.356  0.7274  0.0668 -0.0603
13672SOL    HW142457   6.771   5.429   8.318 -1.5010 -1.9632 -0.1325
13672SOL    HW242458   6.902   5.357   8.291  1.0650  2.3566 -0.0600
13673SOL     OW42459   3.316   6.261  10.097 -0.3555  0.3354  0.1665
13673SOL    HW142460   3.333   6.354  10.114  0.9574  0.0507  0.5418
13673SOL    HW242461   3.348   6.217  10.176  1.0750 -0.5963 -0.8852
13674SOL     OW42462   7.587   1.578   8.593  0.9108 -0.4515  0.0616
13674SOL    HW142463   7.575   1.670   8.572 -0.2404 -0.7648 -0.7349
13674SOL    HW242464   7.568   1.532   8.511 -2.0042 -1.6103  1.2579
13675SOL     OW42465   7.122   3.024   2.462  0.2783  0.0105  0.0449
13675SOL    HW142466   7.071   2.952   2.499 -0.5808 -0.3512 -1.7488
13675SOL    HW242467   7.204   2.984   2.435  0.8457  0.2455  1.3349
13676SOL     OW42468   1.038   4.674  11.526 -0.6998 -0.2172  0.0830
13676SOL    HW142469   1.059   4.728  11.450 -0.3875  0.9053  0.9389
13676SOL    HW242470   1.030   4.585  11.492  0.5106  0.1039 -1.0722
13677SOL     OW42471   5.298   7.627   2.343  0.2385  0.0413  0.1960
13677SOL    HW142472   5.234   7.558   2.356 -0.2264  0.2222 -0.9618
13677SOL    HW242473   5.263   7.702   2.390  0.0113 -0.0957  0.2457
13678SOL     OW42474   0.090   7.056   9.160  0.4291 -0.1934  0.1418
13678SOL    HW142475   0.016   7.104   9.124 -0.1747 -0.9795  0.3167
13678SOL    HW242476   0.148   7.124   9.195  0.1799  0.4724 -0.7047
13679SOL     OW42477   5.730   6.125  11.858 -0.8474 -0.3396 -0.0099
13679SOL    HW142478   5.760   6.122  11.949 -0.7963  1.1348  0.0405
13679SOL    HW242479   5.639   6.097  11.862 -0.9175 -0.0508  0.5244
13680SOL     OW42480   6.738   0.451   6.032 -0.5190 -0.0710  0.4697
13680SOL    HW142481   6.761   0.363   6.062 -1.0650 -0.3031  0.2106
13680SOL    HW242482   6.655   0.470   6.075 -1.0761 -0.2195 -0.5255
13681SOL     OW42483   4.541   2.801   0.434  0.0949  0.4471 -0.7575
13681SOL    HW142484   4.521   2.741   0.507  3.0925  1.6738  1.2532
13681SOL    HW242485   4.485   2.877   0.450  1.5564  1.2260  1.1249
13682SOL     OW42486   3.601   2.414   7.312 -0.6798  0.1012 -0.0099
13682SOL    HW142487   3.644   2.392   7.229 -1.1681  1.9205 -0.7852
13682SOL    HW242488   3.579   2.506   7.305  0.0887  0.5713  2.5416
13683SOL     OW42489   2.986   0.387   6.695  0.0759  0.3617 -0.0575
13683SOL    HW142490   2.974   0.414   6.604 -0.7653 -1.2005 -0.4379
13683SOL    HW242491   3.037   0.306   6.689 -0.9634 -0.3839  0.7617
13684SOL     OW42492   3.771   2.334  12.389  0.0162 -0.3342  0.2029
13684SOL    HW142493   3.856   2.347  12.430  1.1912 -0.4867 -2.0144
13684SOL    HW242494   3.707   2.352  12.458  1.7840  2.0567  1.3238
13685SOL     OW42495   1.305   5.560   4.270 -0.8175  0.3662  0.0383
13685SOL    HW142496   1.233   5.622   4.260 -1.8327 -0.8297 -0.3146
13685SOL    HW242497   1.282   5.487   4.213  0.9132  0.1375 -0.4406
13686SOL     OW42498   5.931   0.960   6.652  0.0662 -0.3659 -0.1907
13686SOL    HW142499   5.908   0.867   6.648 -2.3002 -0.1899  3.9125
13686SOL    HW242500   5.894   0.997   6.571  1.2807 -2.9172 -2.0410
13687SOL     OW42501   4.356   0.957   8.205  0.3414 -0.2346  0.3480
13687SOL    HW142502   4.269   0.922   8.224  0.1764  0.0541  0.1272
13687SOL    HW242503   4.412   0.879   8.198 -0.0575 -0.4678 -0.3351
13688SOL     OW42504   4.603   2.626   5.392 -0.0964  0.4362  0.3503
13688SOL    HW142505   4.608   2.671   5.477  3.0014  0.7925  0.1071
13688SOL    HW242506   4.625   2.535   5.413  0.8404  0.5597 -0.0591
13689SOL     OW42507   1.102   0.458   9.880 -0.3260 -0.2273  0.1968
13689SOL    HW142508   1.009   0.443   9.861 -0.4437  0.8545 -0.1630
13689SOL    HW242509   1.110   0.554   9.884  0.5799 -0.3367  1.2360
13690SOL     OW42510   1.539   0.975   1.386  0.1955  0.3233 -0.2213
13690SOL    HW142511   1.567   1.049   1.439  0.7964 -0.2570  0.2878
13690SOL    HW242512   1.473   0.931   1.440 -1.4137  1.4101 -1.2146
13691SOL     OW42513   5.199   5.232   9.252  0.1684 -0.0450 -0.0019
13691SOL    HW142514   5.182   5.145   9.288 -0.6230  0.6982  1.5039
13691SOL    HW242515   5.153   5.233   9.169 -0.4438 -0.8078  0.3171
13692SOL     OW42516   4.644   3.351   6.110  0.7231 -0.1565  0.2744
13692SOL    HW142517   4.663   3.350   6.016  1.5129 -1.0163  0.4247
13692SOL    HW242518   4.549   3.342   6.115  0.5437  1.1058 -0.4481
13693SOL     OW42519   2.737   5.875  11.241 -0.1562  0.0519  0.0824
13693SOL    HW142520   2.719   5.782  11.233  1.6036 -0.3867  0.7308
13693SOL    HW242521   2.765   5.887  11.331 -0.7031  1.2854  0.1138
13694SOL     OW42522   1.847   4.111   3.955 -0.0817 -0.1094 -0.0340
13694SOL    HW142523   1.887   4.056   4.022  0.2830 -0.0322 -0.1870
13694SOL    HW242524   1.799   4.050   3.899  1.4523 -0.4600 -1.0211
13695SOL     OW42525   1.613   2.858   5.657  0.3234  0.0592 -0.0279
13695SOL    HW142526   1.611   2.814   5.572 -1.8563 -1.7466  0.8513
13695SOL    HW242527   1.627   2.787   5.720 -1.5682  0.8148  1.3321
13696SOL     OW42528   5.108   2.117   3.999  1.0606  0.5403  0.5174
13696SOL    HW142529   5.184   2.114   4.057  1.1852 -1.4835  0.3410
13696SOL    HW242530   5.129   2.185   3.935  1.9495  1.1893  1.4615
13697SOL     OW42531   3.216   2.847   1.831 -0.1102  0.1608 -0.2768
13697SOL    HW142532   3.128   2.857   1.795 -0.6280  1.4944  1.2319
13697SOL    HW242533   3.272   2.897   1.772 -0.5434  0.2157 -0.6420
13698SOL     OW42534   5.993   2.967   3.079  0.1358 -0.0453 -0.2828
13698SOL    HW142535   5.902   2.994   3.090 -0.0297 -0.5484 -0.3554
13698SOL    HW242536   6.037   3.000   3.157 -0.1063  0.2112 -0.2522
13699SOL     OW42537   7.050   3.833  11.032 -0.4011 -0.3139  0.2636
13699SOL    HW142538   6.978   3.862  10.976 -0.4922  0.1791  0.6345
13699SOL    HW242539   7.009   3.811  11.115 -0.0591  0.4878  0.6535
13700SOL     OW42540   0.747   1.372   6.865 -0.0104 -0.5575  0.0116
13700SOL    HW142541   0.758   1.279   6.881 -0.8138 -0.5668  0.5734
13700SOL    HW242542   0.745   1.412   6.952  0.7212  0.0345 -0.2317
13701SOL     OW42543   7.419   5.120   1.276  0.5120  0.6264 -0.3270
13701SOL    HW142544   7.352   5.161   1.331 -0.2708 -0.4023 -0.5023
13701SOL    HW242545   7.500   5.133   1.325 -0.1847 -0.4045  1.1745
13702SOL     OW42546   5.376   7.164  10.264  0.2159  0.1781 -0.4219
13702SOL    HW142547   5.412   7.209  10.340 -2.4519  0.9788  0.4901
13702SOL    HW242548   5.355   7.076  10.296  0.8700 -0.1254 -0.8058
13703SOL     OW42549   0.145   4.977  11.066 -0.4742 -0.2441 -0.5508
13703SOL    HW142550   0.186   4.943  10.986  0.9771  0.8598 -0.2937
13703SOL    HW242551   0.165   5.070  11.066 -1.1638 -0.0799  0.7054
13704SOL     OW42552   4.258   1.866  12.427 -0.1071  0.1714 -0.5270
13704SOL    HW142553   4.206   1.829  12.355  0.7898 -0.0832 -1.0496
13704SOL    HW242554   4.212   1.947  12.449 -0.8622 -0.1624 -0.8269
13705SOL     OW42555   7.762   5.359   6.706  0.0443  0.2756 -0.0341
13705SOL    HW142556   7.740   5.273   6.743  4.6144 -1.6227 -1.0912
13705SOL    HW242557   7.796   5.409   6.780 -0.4821  0.3481  0.1631
13706SOL     OW42558   6.082   0.860   9.853 -0.1301  0.2147 -0.4698
13706SOL    HW142559   6.028   0.816   9.919 -0.8167  2.0634  0.2692
13706SOL    HW242560   6.171   0.856   9.887  0.1922 -2.2844 -1.3824
13707SOL     OW42561   0.635   6.670   4.032  0.4890 -0.6210  0.0932
13707SOL    HW142562   0.619   6.642   3.942 -1.1520 -0.3277  0.2647
13707SOL    HW242563   0.655   6.590   4.080  0.2734 -0.9184 -0.3136
13708SOL     OW42564   6.375   4.238   0.304  0.0843 -0.7650 -0.0055
13708SOL    HW142565   6.326   4.289   0.368 -1.6852 -0.7014 -1.3615
13708SOL    HW242566   6.432   4.181   0.357 -0.4325  0.1475  1.5702
13709SOL     OW42567   7.052   2.536  11.765  0.4896 -0.6597  0.2075
13709SOL    HW142568   7.024   2.448  11.743 -1.6339 -0.2095  0.8902
13709SOL    HW242569   7.099   2.526  11.848 -1.5968 -0.9356  1.4121
13710SOL     OW42570   7.429   1.287  11.570  0.0011 -0.3554  0.4028
13710SOL    HW142571   7.492   1.344  11.615  1.4340  0.2582 -2.2070
13710SOL    HW242572   7.374   1.346  11.519  0.8861 -1.1821 -1.6014
13711SOL     OW42573   0.590   0.709   7.718 -0.0558 -0.0537  0.3868
13711SOL    HW142574   0.531   0.633   7.719  0.2466 -0.3069 -0.2790
13711SOL    HW242575   0.575   0.749   7.633 -1.3108  1.5263  1.2975
13712SOL     OW42576   7.525   7.475   8.939  0.2770  0.6168 -0.6100
13712SOL    HW142577   7.526   7.398   8.996 -0.6579  1.5157  0.6752
13712SOL    HW242578   7.479   7.542   8.990  0.5906  1.8662 -1.9109
13713SOL     OW42579   1.435   0.668   1.154  0.4625  0.0985 -0.2996
13713SOL    HW142580   1.462   0.728   1.084  0.4083  1.7718  1.0465
13713SOL    HW242581   1.515   0.649   1.202  0.0034  1.9801  1.3713
13714SOL     OW42582   2.123   7.894  12.044  0.0997  0.0387 -0.1328
13714SOL    HW142583   2.078   7.978  12.035 -0.1421 -0.1971 -1.3459
13714SOL    HW242584   2.056   7.828  12.027  0.6885 -0.3393 -1.1105
13715SOL     OW42585   4.665   4.405   7.823 -0.3603  0.3010  0.4442
13715SOL    HW142586   4.575   4.374   7.823 -0.2262 -0.0911  0.1127
13715SOL    HW242587   4.717   4.327   7.803  0.1290  0.2989  1.6288
13716SOL     OW42588   6.989   2.922   9.027  0.3001  0.1957  0.3884
13716SOL    HW142589   7.043   2.848   8.999 -0.9596 -0.8480  0.6236
13716SOL    HW242590   6.944   2.891   9.105  0.1581  1.4168  0.8161
13717SOL     OW42591   7.434   5.545   0.208  0.1697 -0.1138  0.1207
13717SOL    HW142592   7.404   5.636   0.212 -0.1610 -0.2231  3.8061
13717SOL    HW242593   7.354   5.493   0.216  0.4357 -0.7374 -1.1037
13718SOL     OW42594   3.604   1.943  12.205 -0.3344 -0.7206  0.3726
13718SOL    HW142595   3.688   1.978  12.234  0.2993 -1.7786 -0.1364
13718SOL    HW242596   3.569   1.896  12.280 -0.8626  0.3675  0.8359
13719SOL     OW42597   0.839   2.690   8.529  0.3930 -0.1033  0.1486
13719SOL    HW142598   0.827   2.741   8.449  0.2499 -0.3031  0.0397
13719SOL    HW242599   0.886   2.612   8.500 -2.0388 -1.5123 -0.2621
13720SOL     OW42600   0.684   6.820   6.252  0.4722 -0.5066  0.0782
13720SOL    HW142601   0.618   6.819   6.184  2.0547  1.0677 -1.5922
13720SOL    HW242602   0.668   6.901   6.301 -0.9658 -1.8623  2.0190
13721SOL     OW42603   7.611   7.207   4.581 -0.0696 -0.7623 -0.6272
13721SOL    HW142604   7.688   7.171   4.537  0.9611 -1.1328  1.3908
13721SOL    HW242605   7.571   7.132   4.625 -0.3114 -0.1934  0.1451
13722SOL     OW42606   7.923   5.907   5.439  0.1787 -0.8360  0.4261
13722SOL    HW142607   7.975   5.886   5.517 -0.2420  1.9897  1.5831
13722SOL    HW242608   7.984   5.949   5.380 -0.3759  1.0353  1.1244
13723SOL     OW42609   4.214   0.028   1.624 -0.4101  0.4073  0.3252
13723SOL    HW142610   4.237   0.119   1.609  1.4788 -0.3966 -2.7450
13723SOL    HW242611   4.119   0.028   1.635 -0.7917  2.5660 -1.9967
13724SOL     OW42612   7.623   2.022   3.216 -0.0120 -0.4163 -0.3054
13724SOL    HW142613   7.663   2.099   3.255  0.1492 -1.0524  0.8246
13724SOL    HW242614   7.529   2.038   3.224 -0.0302 -1.4157  2.2601
13725SOL     OW42615   2.859   3.086   7.318 -0.3596 -0.4563 -0.1656
13725SOL    HW142616   2.911   3.138   7.380  0.9975 -0.5315 -1.1751
13725SOL    HW242617   2.778   3.135   7.307  0.1160  0.4704  0.3264
13726SOL     OW42618   3.337   5.486   1.897 -0.3600 -0.2549 -0.2222
13726SOL    HW142619   3.392   5.475   1.974 -0.3280 -1.3481 -0.3822
13726SOL    HW242620   3.391   5.456   1.824 -0.4669  0.5581 -0.6589
13727SOL     OW42621   7.734   3.523   3.523 -0.1229 -0.4850 -0.3330
13727SOL    HW142622   7.762   3.599   3.574  0.1037 -0.8751  0.1321
13727SOL    HW242623   7.731   3.555   3.433  0.4497 -0.0571 -0.2075
13728SOL     OW42624   3.227   0.687   0.482 -0.4832 -0.2499  0.6763
13728SOL    HW142625   3.291   0.674   0.552  0.1692 -0.6461  0.0192
13728SOL    HW242626   3.280   0.706   0.404 -1.1932  0.0589  0.2598
13729SOL     OW42627   4.801   4.858   8.212  0.2011  0.8274  0.7390
13729SOL    HW142628   4.875   4.840   8.154 -1.1835  0.0168 -0.8852
13729SOL    HW242629   4.811   4.796   8.284 -0.3741 -1.3280 -0.9206
13730SOL     OW42630   1.670   5.240   5.402 -0.1290 -0.0823 -0.2292
13730SOL    HW142631   1.759   5.269   5.420  0.2526 -2.3300  2.1290
13730SOL    HW242632   1.658   5.255   5.308  3.1897 -0.8294 -0.8928
13731SOL     OW42633   4.630   2.410   7.294 -0.8303 -0.6212  0.1302
13731SOL    HW142634   4.722   2.401   7.318 -0.8509  0.2595  0.5766
13731SOL    HW242635   4.587   2.437   7.376 -1.0447  1.6278 -0.6704
13732SOL     OW42636   0.355   0.524   9.222 -0.7527  0.4016 -0.1483
13732SOL    HW142637   0.373   0.553   9.312 -2.3311  2.4412 -0.4101
13732SOL    HW242638   0.287   0.457   9.233 -1.2408  0.9350  0.1830
13733SOL     OW42639   6.738   5.224   8.639 -0.0507  0.1893 -0.0563
13733SOL    HW142640   6.653   5.181   8.642 -0.1798  0.3662 -0.8673
13733SOL    HW242641   6.796   5.159   8.599 -0.2390  0.7362 -1.2556
13734SOL     OW42642   3.029   0.999   0.862  0.3328 -0.5821  0.1623
13734SOL    HW142643   2.992   0.913   0.878  1.1058 -1.0384 -0.4185
13734SOL    HW242644   2.998   1.023   0.775  0.0555 -0.2349  0.3538
13735SOL     OW42645   0.912   0.693   1.533  0.3620 -0.3582 -0.2236
13735SOL    HW142646   0.997   0.656   1.508  0.1250 -0.6421 -0.6240
13735SOL    HW242647   0.858   0.616   1.553  0.0931 -0.1926 -0.3146
13736SOL     OW42648   0.779   4.599  11.225 -0.5045 -0.0024 -0.2044
13736SOL    HW142649   0.741   4.573  11.142 -2.8503 -0.4536  0.9147
13736SOL    HW242650   0.801   4.517  11.269 -0.2447  0.1842  0.0200
13737SOL     OW42651   1.901   0.201   0.543 -0.0355 -0.1765 -0.1948
13737SOL    HW142652   1.871   0.119   0.582  1.7986 -1.7024 -1.7725
13737SOL    HW242653   1.825   0.232   0.493 -1.0433 -0.3890  1.1459
13738SOL     OW42654   0.140   4.549  11.888 -0.3542  0.2903  0.4978
13738SOL    HW142655   0.202   4.597  11.834 -0.3569 -1.3807 -1.1031
13738SOL    HW242656   0.186   4.535  11.971  0.6397  0.7956  0.0488
13739SOL     OW42657   1.588   2.758   3.490  0.1282 -0.1128 -0.3855
13739SOL    HW142658   1.642   2.792   3.419  0.2267 -1.7528 -1.1395
13739SOL    HW242659   1.645   2.699   3.538 -0.1503  0.4236  0.6401
13740SOL     OW42660   0.721   6.747   0.331 -0.3575 -0.1221  0.0932
13740SOL    HW142661   0.737   6.779   0.420  0.2257 -0.4029  0.0952
13740SOL    HW242662   0.700   6.825   0.280  1.0802  0.2948  0.0909
13741SOL     OW42663   0.248   4.063   5.146 -0.4305  0.4359  0.3867
13741SOL    HW142664   0.250   4.091   5.054 -2.7806  0.4392  0.2696
13741SOL    HW242665   0.312   3.992   5.151 -0.0812  0.5952 -1.1892
13742SOL     OW42666   1.175   4.438  10.478 -0.5177  0.4851  0.2618
13742SOL    HW142667   1.172   4.480  10.564 -1.4367  0.1516  0.3982
13742SOL    HW242668   1.129   4.355  10.490  0.2989 -0.0578 -0.2919
13743SOL     OW42669   6.007   7.559  10.620  0.3926  0.0320 -0.2138
13743SOL    HW142670   6.034   7.511  10.698 -1.2834 -0.2056  0.2650
13743SOL    HW242671   6.062   7.524  10.549  1.0949 -0.6100  0.6271
13744SOL     OW42672   3.912   4.210   5.585  0.9761 -0.2041 -0.8166
13744SOL    HW142673   3.824   4.209   5.546  0.9065  0.5249 -0.6927
13744SOL    HW242674   3.956   4.283   5.541  1.2282 -0.0161 -0.2594
13745SOL     OW42675   0.683   0.757   7.094 -0.6441 -0.0641 -0.4023
13745SOL    HW142676   0.611   0.716   7.141 -1.3664 -0.7095 -1.9723
13745SOL    HW242677   0.681   0.849   7.120 -0.1787 -0.6298  1.7711
13746SOL     OW42678   5.264   6.809   9.428 -0.0153 -0.3097  0.2556
13746SOL    HW142679   5.340   6.860   9.458  0.0927 -0.1790 -0.2184
13746SOL    HW242680   5.296   6.719   9.423  0.3586 -0.1374 -0.7194
13747SOL     OW42681   1.509   2.924   2.818  0.2471  0.1115 -0.5054
13747SOL    HW142682   1.583   2.968   2.775  1.0160 -0.8272 -0.1796
13747SOL    HW242683   1.535   2.832   2.822  0.1745  0.1290  1.8572
13748SOL     OW42684   5.758   5.381   1.545  0.1985  0.0402  0.4611
13748SOL    HW142685   5.712   5.371   1.462  0.7816  2.0895 -0.1634
13748SOL    HW242686   5.840   5.333   1.532  0.4486  0.6534 -0.2895
13749SOL     OW42687   7.942   1.424   3.907 -0.1102  0.2175 -0.5940
13749SOL    HW142688   7.944   1.448   3.814 -1.0635 -1.1292 -0.9939
13749SOL    HW242689   7.850   1.430   3.932  0.2479  1.4987  0.5515
13750SOL     OW42690   0.157   6.889   3.096  0.6742  0.0811 -0.2714
13750SOL    HW142691   0.098   6.947   3.144  0.3654 -0.6173  0.2130
13750SOL    HW242692   0.099   6.825   3.054  1.0051  0.1523 -0.8571
13751SOL     OW42693   7.062   0.786   4.043 -0.6842 -0.6307  0.0661
13751SOL    HW142694   7.123   0.713   4.044  0.1080 -0.1034 -2.4226
13751SOL    HW242695   7.044   0.802   3.950 -0.4538  2.5814  0.4396
13752SOL     OW42696   0.001   4.734   8.799 -0.0076  0.1149 -0.3973
13752SOL    HW142697   0.028   4.805   8.857 -0.1410 -0.4977  0.4418
13752SOL    HW242698   0.061   4.662   8.821  0.4292  0.1093 -1.5665
13753SOL     OW42699   0.054   1.172   9.426  0.1705  0.1361 -0.1022
13753SOL    HW142700   0.061   1.101   9.491  0.4319  1.3990  1.3060
13753SOL    HW242701   0.115   1.238   9.457  1.5800  0.1070 -2.6048
13754SOL     OW42702   2.384   6.105   0.986  0.2366 -0.0157 -0.1902
13754SOL    HW142703   2.293   6.079   0.994  0.7359 -2.2460 -1.0015
13754SOL    HW242704   2.381   6.196   0.956 -1.6740  0.3513  1.0028
13755SOL     OW42705   1.537   5.649  12.304 -0.1602 -0.2873  0.1821
13755SOL    HW142706   1.543   5.560  12.339  0.3882 -0.3773 -0.1374
13755SOL    HW242707   1.455   5.649  12.254  0.4300 -0.9857 -0.8261
13756SOL     OW42708   3.834   5.574   3.513 -0.4336  0.0118 -0.0221
13756SOL    HW142709   3.899   5.521   3.468  1.2381  1.6457  0.3055
13756SOL    HW242710   3.795   5.629   3.445 -1.1828 -0.6726 -0.1530
13757SOL     OW42711   0.853   0.527   5.703  0.3873 -0.0651  0.1990
13757SOL    HW142712   0.775   0.573   5.672 -0.5196 -0.2544  2.0484
13757SOL    HW242713   0.925   0.588   5.685 -0.3693  0.7200 -0.2671
13758SOL     OW42714   1.597   5.454   4.873 -0.5461 -0.5701  0.9742
13758SOL    HW142715   1.514   5.496   4.895 -1.0129 -1.7790  1.6090
13758SOL    HW242716   1.638   5.513   4.810 -1.8683  0.0602  0.6790
13759SOL     OW42717   7.560   2.047   4.652  0.0003  0.3621  0.1403
13759SOL    HW142718   7.627   2.041   4.721  0.4302  0.2410 -0.2858
13759SOL    HW242719   7.581   2.127   4.604 -1.0814  1.1702  0.9488
13760SOL     OW42720   0.673   7.263   2.467  0.3570 -0.3537  0.0740
13760SOL    HW142721   0.633   7.197   2.523 -0.9968  0.9857  0.7653
13760SOL    HW242722   0.765   7.264   2.493  0.1152 -1.0125  0.9913
13761SOL     OW42723   1.542   5.962   0.648 -0.3798 -0.3343 -0.1805
13761SOL    HW142724   1.498   5.900   0.706 -2.5560 -0.2865 -1.6645
13761SOL    HW242725   1.504   6.047   0.671 -0.2166 -0.1130 -0.7178
13762SOL     OW42726   7.453   6.293  10.393  0.7100  0.1034 -0.6787
13762SOL    HW142727   7.479   6.385  10.388  0.6074  0.0968 -1.3944
13762SOL    HW242728   7.390   6.290  10.465 -0.4293  0.8708 -1.6096
13763SOL     OW42729   6.695   0.633   2.437  0.1840 -0.6184  0.3891
13763SOL    HW142730   6.660   0.582   2.364 -1.6636 -2.4774  2.3912
13763SOL    HW242731   6.636   0.707   2.446  0.2050 -0.5828  0.2353
13764SOL     OW42732   3.858   2.508   0.650 -0.0225  0.0466  0.9194
13764SOL    HW142733   3.780   2.515   0.596 -0.6172 -0.7398  1.6629
13764SOL    HW242734   3.857   2.419   0.684  1.2881 -0.0358  0.8163
13765SOL     OW42735   0.772   0.670  12.284  0.1834 -0.0742  0.3623
13765SOL    HW142736   0.723   0.629  12.355  0.2693 -0.6836  0.0718
13765SOL    HW242737   0.851   0.705  12.327  1.6997 -2.9527  0.1564
13766SOL     OW42738   0.860   7.650   7.498  0.3233 -0.2849  0.6264
13766SOL    HW142739   0.811   7.714   7.549  1.3141 -0.1179  1.3880
13766SOL    HW242740   0.911   7.601   7.562 -0.4473 -1.9032  0.0717
13767SOL     OW42741   1.737   2.200   6.053 -0.3854 -0.2519  0.0993
13767SOL    HW142742   1.735   2.114   6.010 -0.3536 -0.3123  0.2155
13767SOL    HW242743   1.793   2.254   5.998 -0.0929 -0.4187  0.2337
13768SOL     OW42744   0.531   6.624   2.439 -0.6959  0.5457 -0.0880
13768SOL    HW142745   0.528   6.705   2.490  0.9048  0.4740  0.1848
13768SOL    HW242746   0.495   6.557   2.498 -0.5219  0.7882  0.2987
13769SOL     OW42747   6.620   2.657   6.258  0.5530 -0.4836  0.1016
13769SOL    HW142748   6.690   2.597   6.284  0.2544 -1.4374 -1.1859
13769SOL    HW242749   6.656   2.744   6.275  1.6165 -0.9810  0.5205
13770SOL     OW42750   4.716   5.288  11.346  0.5417  0.5522 -0.0831
13770SOL    HW142751   4.670   5.331  11.418  0.4123  1.5342 -0.7280
13770SOL    HW242752   4.646   5.249  11.293  0.5784  0.5027 -0.0950
13771SOL     OW42753   7.616   1.920   0.055  0.5744 -0.4581 -0.1704
13771SOL    HW142754   7.625   1.873  -0.028  0.5044 -0.8288  0.0252
13771SOL    HW242755   7.631   1.852   0.122 -1.4849 -0.6521  0.1572
13772SOL     OW42756   6.363   3.507  10.641  0.0235  0.1883  0.1297
13772SOL    HW142757   6.287   3.549  10.601  0.3787  0.4271 -0.2865
13772SOL    HW242758   6.439   3.551  10.604  0.3822 -0.3199  0.2431
13773SOL     OW42759   0.268   1.512   2.289  0.0676 -0.5517  0.0876
13773SOL    HW142760   0.269   1.418   2.307 -1.6574 -0.5161  0.5055
13773SOL    HW242761   0.177   1.538   2.299  0.3703  1.0251 -0.8307
13774SOL     OW42762   6.356   4.272   7.916  0.3111  0.4536 -1.3961
13774SOL    HW142763   6.265   4.276   7.888  0.0274  1.4481 -0.4214
13774SOL    HW242764   6.393   4.356   7.890  1.3769 -0.4920 -3.0825
13775SOL     OW42765   3.272   4.016   4.895  0.2273  0.0978  0.2745
13775SOL    HW142766   3.326   4.094   4.911  0.3771 -0.0137  0.3170
13775SOL    HW242767   3.238   4.029   4.807  1.3157 -0.4109 -0.2372
13776SOL     OW42768   3.744   0.027   7.588  0.4731 -0.5007  0.0847
13776SOL    HW142769   3.666  -0.023   7.613  1.5680 -2.2360  0.1474
13776SOL    HW242770   3.783   0.053   7.672  0.2034  0.0102  0.0565
13777SOL     OW42771   1.194   6.981   2.470  1.0658  1.0648  0.5394
13777SOL    HW142772   1.193   6.897   2.424 -0.3354  1.8111 -0.8955
13777SOL    HW242773   1.245   6.964   2.550  1.7996 -0.8232 -0.2660
13778SOL     OW42774   2.815   7.247   4.596 -0.3245  0.1457  0.3394
13778SOL    HW142775   2.842   7.303   4.669 -1.6699  0.9521  0.2403
13778SOL    HW242776   2.720   7.239   4.605 -0.0747 -3.9497  1.6433
13779SOL     OW42777   0.703   2.369   0.184 -0.1721 -0.1309  0.4215
13779SOL    HW142778   0.786   2.362   0.231  1.0117  1.0818 -1.3710
13779SOL    HW242779   0.705   2.298   0.120 -2.3024 -2.5338  2.7727
13780SOL     OW42780   6.375   6.693   4.123  0.3418 -0.0777 -0.1021
13780SOL    HW142781   6.463   6.681   4.159  1.1712  4.3622 -0.0542
13780SOL    HW242782   6.337   6.763   4.175 -2.1388  0.1002 -1.9403
13781SOL     OW42783   3.267   5.428   0.385  0.1756 -0.3672  0.7449
13781SOL    HW142784   3.311   5.511   0.366 -1.0534 -0.0677 -1.0522
13781SOL    HW242785   3.266   5.423   0.481  0.3984  1.6250  0.8970
13782SOL     OW42786   1.264   4.968   2.494 -0.1633  0.0517  0.2792
13782SOL    HW142787   1.274   4.920   2.576 -2.4466 -0.5125  0.2758
13782SOL    HW242788   1.301   5.054   2.512  0.9920 -0.6324  1.3138
13783SOL     OW42789   5.161   5.475   6.749 -0.0764  0.0437  0.2940
13783SOL    HW142790   5.076   5.468   6.706 -0.2757 -0.0119  0.6895
13783SOL    HW242791   5.157   5.558   6.797  1.0996  1.4298 -1.8281
13784SOL     OW42792   2.389   3.273   0.894  0.1300 -0.2413  0.2073
13784SOL    HW142793   2.422   3.223   0.969 -1.1118  1.7191  2.1749
13784SOL    HW242794   2.338   3.210   0.844  0.1879 -1.3940  1.5402
13785SOL     OW42795   0.968   1.464  10.861 -0.3303 -0.0476 -0.0261
13785SOL    HW142796   1.035   1.471  10.930 -0.1107  1.6806 -0.3566
13785SOL    HW242797   0.986   1.381  10.818  0.3022 -0.5850  1.2139
13786SOL     OW42798   5.902   3.124   6.817  0.3462  0.0236 -0.1619
13786SOL    HW142799   5.890   3.174   6.898 -1.0000  1.2963 -1.1005
13786SOL    HW242800   5.822   3.072   6.809  0.0583  0.5986 -1.1363
13787SOL     OW42801   1.740   1.539   2.197  0.3590 -0.4414  0.4804
13787SOL    HW142802   1.732   1.449   2.228 -0.4471  0.0034  1.6323
13787SOL    HW242803   1.718   1.593   2.273  0.4986  0.7289 -0.2793
13788SOL     OW42804   5.460   2.264   9.757 -0.2256 -0.1441  0.1737
13788SOL    HW142805   5.516   2.284   9.832 -0.1596 -2.5585  0.8440
13788SOL    HW242806   5.522   2.255   9.684  0.1421 -1.3350  0.6061
13789SOL     OW42807   4.361   5.603   1.019 -0.5472 -0.1356 -1.0017
13789SOL    HW142808   4.301   5.536   1.052  0.7629 -1.4763 -1.1809
13789SOL    HW242809   4.323   5.630   0.936 -0.5959 -1.4317 -1.4245
13790SOL     OW42810   1.435   2.725  12.340  0.3201  0.4316  0.3170
13790SOL    HW142811   1.508   2.759  12.392  1.7891  1.4662 -2.2300
13790SOL    HW242812   1.359   2.774  12.371  0.9289  0.3775  2.0321
13791SOL     OW42813   0.552   1.619  11.343  0.8116 -0.5716 -0.3391
13791SOL    HW142814   0.546   1.612  11.438  1.1357 -0.2518 -0.2914
13791SOL    HW242815   0.472   1.664  11.316  0.8827 -0.3502 -0.1805
13792SOL     OW42816   7.899   4.314   7.780  0.2814 -0.8187 -0.5151
13792SOL    HW142817   7.915   4.225   7.812 -1.6848 -2.0042 -2.5556
13792SOL    HW242818   7.832   4.303   7.712 -2.2910  2.5853  1.2056
13793SOL     OW42819   6.221   1.663  10.212 -0.3469  0.1767  0.0097
13793SOL    HW142820   6.243   1.722  10.140  2.0024  0.5676  0.9517
13793SOL    HW242821   6.201   1.579  10.169 -1.4241  1.0201 -1.1985
13794SOL     OW42822   1.038   2.823  10.299 -0.6039 -0.1821 -0.2680
13794SOL    HW142823   0.943   2.815  10.308 -0.7096  0.6668 -0.5440
13794SOL    HW242824   1.072   2.805  10.387 -1.0572  0.0698 -0.0388
13795SOL     OW42825   7.950   1.941   7.366  0.0879 -0.0690  0.6623
13795SOL    HW142826   8.013   1.961   7.297  0.2622  1.4619  1.2180
13795SOL    HW242827   7.905   2.024   7.382  0.0679 -0.3713  2.3937
13796SOL     OW42828   5.954   2.342   8.616 -0.0831  0.3965 -0.2257
13796SOL    HW142829   5.896   2.311   8.685 -0.4853  0.5190 -0.5100
13796SOL    HW242830   6.039   2.354   8.661 -0.4409  0.8685  0.3440
13797SOL     OW42831   0.085   6.417   3.089 -0.2936  0.1739  0.2233
13797SOL    HW142832   0.078   6.343   3.029 -0.0731  1.1898 -1.1072
13797SOL    HW242833   0.173   6.410   3.127 -1.1800 -1.6604  2.0993
13798SOL     OW42834   7.733   1.842   3.670  0.1699 -0.2963 -0.6197
13798SOL    HW142835   7.822   1.843   3.633  0.3353  0.0007 -0.2251
13798SOL    HW242836   7.718   1.933   3.697 -0.2028 -0.3747 -0.5666
13799SOL     OW42837   1.119   4.536   5.800 -0.2439 -0.2866 -0.5064
13799SOL    HW142838   1.095   4.446   5.774 -0.4509 -0.9046  1.6691
13799SOL    HW242839   1.036   4.578   5.819 -0.0480 -0.1763  0.1227
13800SOL     OW42840   1.563   1.603   5.690 -0.4200  0.2779 -0.2526
13800SOL    HW142841   1.646   1.633   5.652 -0.2584 -0.5286 -0.5728
13800SOL    HW242842   1.496   1.656   5.647 -0.3111 -1.1380 -2.3310
13801SOL     OW42843   0.651   3.460   8.207  0.4318  0.3690 -0.4731
13801SOL    HW142844   0.587   3.530   8.221 -1.3105 -1.1107 -0.6308
13801SOL    HW242845   0.648   3.408   8.287  1.2346  0.1027 -0.6089
13802SOL     OW42846   2.952   3.157   4.591  0.2855 -0.2134 -0.4834
13802SOL    HW142847   2.975   3.173   4.682  0.0306  0.6848 -0.5696
13802SOL    HW242848   2.860   3.133   4.593 -0.2450  1.7102 -0.6793
13803SOL     OW42849   4.986   2.190   0.827  0.1555  0.4147  0.0445
13803SOL    HW142850   4.930   2.255   0.870 -2.0652 -1.1944 -0.2174
13803SOL    HW242851   5.009   2.128   0.896 -0.8246 -0.4840 -0.4122
13804SOL     OW42852   2.237   4.939   2.302  0.7153 -0.3462  0.2405
13804SOL    HW142853   2.176   4.875   2.264 -0.2430  1.3838 -1.2519
13804SOL    HW242854   2.294   4.964   2.230  1.3678  0.1757  0.9246
13805SOL     OW42855   6.582   7.686   4.494 -0.0958  0.1557 -0.0663
13805SOL    HW142856   6.578   7.637   4.411  1.2041  0.7556 -0.5014
13805SOL    HW242857   6.494   7.724   4.503 -0.1552  0.3577 -1.3418
13806SOL     OW42858   5.569   7.356   5.229 -0.1632 -0.0465  0.1716
13806SOL    HW142859   5.646   7.389   5.182 -0.3972 -0.1405 -0.2816
13806SOL    HW242860   5.605   7.298   5.295  0.2127  0.5793  0.5310
13807SOL     OW42861   7.017   6.520   9.280  0.2914 -0.4256 -0.2223
13807SOL    HW142862   7.101   6.486   9.248  0.9744 -0.3929  1.4222
13807SOL    HW242863   7.041   6.591   9.339 -0.8758 -0.6900  0.5976
13808SOL     OW42864   7.838   0.632   0.920  0.1867 -0.0355 -1.0808
13808SOL    HW142865   7.916   0.580   0.939 -0.2670  0.0699  1.2950
13808SOL    HW242866   7.768   0.567   0.911  0.1262  0.0043 -0.8950
13809SOL     OW42867   2.462   1.799   0.988 -0.2715 -0.3345  0.3516
13809SOL    HW142868   2.440   1.711   1.018  0.9396 -0.6531  0.3516
13809SOL    HW242869   2.477   1.849   1.068  0.6154 -0.5604  0.3369
13810SOL     OW42870   7.132   5.032   3.850  0.5552 -0.0600  0.3797
13810SOL    HW142871   7.215   5.018   3.804  0.8978 -0.6055  1.1507
13810SOL    HW242872   7.118   5.126   3.845  1.2333  0.0435  0.2713
13811SOL     OW42873   0.867   6.703  11.704  0.2135 -0.2936 -0.3910
13811SOL    HW142874   0.858   6.798  11.711  1.1221 -0.2277 -0.0281
13811SOL    HW242875   0.783   6.669  11.737 -0.0044  0.3732 -0.2420
13812SOL     OW42876   3.793   0.231  11.582  0.0585 -0.1779 -0.6979
13812SOL    HW142877   3.702   0.205  11.598 -0.3060 -0.2459 -2.5977
13812SOL    HW242878   3.795   0.253  11.489  2.3658 -1.6932 -1.0698
13813SOL     OW42879   7.022   4.385   0.325  0.0591 -0.0748 -0.0499
13813SOL    HW142880   6.966   4.420   0.256 -1.5288  0.7095  1.5846
13813SOL    HW242881   7.034   4.292   0.302  0.4625  0.4022 -1.9175
13814SOL     OW42882   5.531   0.631   1.927 -0.1454  0.3743 -0.5128
13814SOL    HW142883   5.502   0.676   2.006 -1.1952  0.6095 -1.0087
13814SOL    HW242884   5.472   0.557   1.919  0.9069 -0.5151 -0.2786
13815SOL     OW42885   5.562   0.206  12.055  0.5336  0.1916 -0.0182
13815SOL    HW142886   5.620   0.138  12.020 -0.7332 -1.6886  1.3805
13815SOL    HW242887   5.486   0.205  11.996  0.6809  0.6922 -0.2226
13816SOL     OW42888   6.148   6.991   6.223 -0.6043 -0.0327 -0.2486
13816SOL    HW142889   6.181   6.969   6.136 -0.0120  1.0941 -0.3206
13816SOL    HW242890   6.225   7.016   6.273 -0.7815 -1.7682  0.9758
13817SOL     OW42891   6.321   6.521   4.713 -0.7399 -0.1251  0.4960
13817SOL    HW142892   6.331   6.541   4.620  0.5975 -1.6844  0.2688
13817SOL    HW242893   6.226   6.514   4.726 -1.0802  2.1858 -0.2327
13818SOL     OW42894   4.329   0.365   7.631  0.7200 -0.1055  0.4307
13818SOL    HW142895   4.264   0.342   7.698  1.7540 -0.4738  1.3319
13818SOL    HW242896   4.314   0.302   7.561 -0.3711  0.2763  0.2982
13819SOL     OW42897   1.935   3.615   7.810  0.4452  0.3367 -1.0248
13819SOL    HW142898   2.027   3.621   7.784  0.7930  0.7458  0.2215
13819SOL    HW242899   1.894   3.562   7.742  1.2677  1.4734 -2.4718
13820SOL     OW42900   4.130   1.186   1.531 -0.0452  0.2772 -0.4631
13820SOL    HW142901   4.071   1.245   1.484 -0.3990  0.6060  0.3651
13820SOL    HW242902   4.074   1.143   1.596  0.2474 -0.8354 -0.9201
13821SOL     OW42903   6.432   4.902  12.323  0.1300 -0.2183 -0.4633
13821SOL    HW142904   6.414   4.888  12.230  0.2419 -1.0593 -0.3602
13821SOL    HW242905   6.368   4.847  12.368  0.6749 -0.5228 -0.0534
13822SOL     OW42906   6.449   2.536  11.135  0.0992 -0.3149 -0.2232
13822SOL    HW142907   6.458   2.534  11.040  0.7511  0.8049 -0.2023
13822SOL    HW242908   6.401   2.456  11.156 -1.0868 -0.0115 -1.5942
13823SOL     OW42909   6.294   6.523   7.910  0.2540 -0.4701  0.0689
13823SOL    HW142910   6.269   6.588   7.844 -0.3947 -0.0650  0.6904
13823SOL    HW242911   6.350   6.461   7.864  0.3298  0.1601 -0.7028
13824SOL     OW42912   6.222   1.553   5.196 -1.1329  0.0426 -0.1227
13824SOL    HW142913   6.149   1.557   5.134 -0.4935 -3.8071 -1.4061
13824SOL    HW242914   6.296   1.520   5.144  0.2024 -0.7464  2.1155
13825SOL     OW42915   0.435   6.560   8.749 -0.3108  0.1962 -1.1035
13825SOL    HW142916   0.432   6.654   8.767 -1.6536 -0.0338  0.0517
13825SOL    HW242917   0.478   6.554   8.664  1.2205  1.7363 -0.5148
13826SOL     OW42918   3.879   2.469  10.327  0.1923 -0.1223 -0.0540
13826SOL    HW142919   3.970   2.464  10.354 -0.2087 -0.3953  1.3482
13826SOL    HW242920   3.857   2.382  10.294  0.1064 -0.4237  0.7809
13827SOL     OW42921   7.254   5.158   0.783  0.2703 -0.7351 -0.0965
13827SOL    HW142922   7.332   5.206   0.755  0.1586 -0.7235 -0.4041
13827SOL    HW242923   7.233   5.193   0.869  0.5423 -0.6615 -0.0616
13828SOL     OW42924   6.156   7.638   5.452  0.5506  0.5190  0.2654
13828SOL    HW142925   6.107   7.556   5.448  1.3681  0.0337  0.0637
13828SOL    HW242926   6.242   7.617   5.416  0.7449  1.4854  0.1426
13829SOL     OW42927   2.026   5.598   1.277  0.0446 -0.1257  0.2850
13829SOL    HW142928   1.943   5.608   1.325 -0.0231 -2.2875  0.7328
13829SOL    HW242929   2.043   5.503   1.280  1.1590 -0.0575 -2.1121
13830SOL     OW42930   3.356   0.694   8.933  0.0373 -0.1937  0.2658
13830SOL    HW142931   3.444   0.721   8.960  0.2466 -0.2650 -0.3271
13830SOL    HW242932   3.343   0.608   8.974 -0.0898  0.1876  1.0371
13831SOL     OW42933   1.721   6.082   5.637 -0.3395  0.2789  0.2916
13831SOL    HW142934   1.646   6.130   5.600 -1.1302 -0.9255  0.2702
13831SOL    HW242935   1.717   6.101   5.730 -0.1991  0.8430  0.1877
13832SOL     OW42936   7.013   6.975   7.790 -0.5999  0.0200  0.2677
13832SOL    HW142937   7.015   7.069   7.810  2.3863 -0.0473  0.7474
13832SOL    HW242938   6.989   6.970   7.697 -3.5836  1.0069  0.8866
13833SOL     OW42939   3.901   1.909   5.548  0.2392 -0.0223  0.1010
13833SOL    HW142940   3.871   1.840   5.488  0.3333 -1.7663  1.9646
13833SOL    HW242941   3.840   1.981   5.534 -0.4883 -0.8574 -1.1967
13834SOL     OW42942   2.428   7.009   8.840  0.1713  0.1512  0.3097
13834SOL    HW142943   2.468   7.069   8.777  0.4057  0.2178  0.5221
13834SOL    HW242944   2.337   7.039   8.846  0.1596  0.1749  0.0417
13835SOL     OW42945   5.629   4.962  12.175  0.4193 -0.0468  0.2654
13835SOL    HW142946   5.725   4.961  12.177  0.5252 -3.1977 -1.0846
13835SOL    HW242947   5.607   5.012  12.096  1.1575 -2.3822 -1.5186
13836SOL     OW42948   4.832   5.646   7.170 -0.4540  0.4046 -0.2823
13836SOL    HW142949   4.827   5.566   7.118 -1.4106 -0.1628  0.6413
13836SOL    HW242950   4.875   5.710   7.113  2.2420 -1.3136 -0.3433
13837SOL     OW42951   0.118   7.883  10.854  0.4910  0.0685  0.0749
13837SOL    HW142952   0.131   7.790  10.837 -0.0249 -0.7161  3.3044
13837SOL    HW242953   0.207   7.919  10.862  0.7158 -0.6345  0.8702
13838SOL     OW42954   7.708   7.359   5.025  0.0522 -0.5948 -0.2262
13838SOL    HW142955   7.780   7.405   4.982  0.0528 -1.1421 -0.8203
13838SOL    HW242956   7.709   7.393   5.115  0.8962 -0.4150 -0.2878
13839SOL     OW42957   1.203   3.408   1.504 -0.7642  0.0254  0.0584
13839SOL    HW142958   1.268   3.393   1.435 -0.6006  1.0168 -0.0139
13839SOL    HW242959   1.211   3.331   1.561  0.4608  0.1200  0.0442
13840SOL     OW42960   2.638   5.338   7.672  0.0579  0.3426 -0.4307
13840SOL    HW142961   2.565   5.388   7.635  0.6334  1.2197 -0.4128
13840SOL    HW242962   2.646   5.262   7.615  0.4987  1.3388 -1.7367
13841SOL     OW42963   2.106   3.245  10.338 -0.1940  0.1789  0.0727
13841SOL    HW142964   2.045   3.187  10.383  0.2418 -1.3679 -1.2409
13841SOL    HW242965   2.063   3.264  10.255  0.0895  0.9935  0.1085
13842SOL     OW42966   3.020   2.569   5.401 -0.1188  0.2261  0.2068
13842SOL    HW142967   2.970   2.578   5.482 -2.0155 -0.8304 -0.7884
13842SOL    HW242968   2.993   2.645   5.348 -1.4526 -0.8208 -0.6863
13843SOL     OW42969   7.947   5.480   4.810 -0.1287  0.3055 -0.2762
13843SOL    HW142970   8.005   5.518   4.744  0.1335  1.3464  0.5215
13843SOL    HW242971   7.889   5.422   4.761  1.1350 -0.2327 -1.1899
13844SOL     OW42972   3.359   1.538  10.361  0.3041  0.4002  0.0857
13844SOL    HW142973   3.381   1.446  10.354  2.7372  0.9903 -1.1413
13844SOL    HW242974   3.333   1.550  10.452  0.2610 -1.4098  0.3446
13845SOL     OW42975   1.698   3.934   9.199  0.1738 -0.1664 -0.3478
13845SOL    HW142976   1.646   3.919   9.120 -0.8874  0.8254  0.1300
13845SOL    HW242977   1.715   3.846   9.234 -0.8552 -0.5287 -0.7272
13846SOL     OW42978   1.844   0.804   2.030 -0.3130 -0.1704  0.2834
13846SOL    HW142979   1.903   0.751   1.977  0.3447  0.2109  0.6240
13846SOL    HW242980   1.769   0.821   1.973  0.5393  0.5338 -0.6648
13847SOL     OW42981   1.628   4.462   4.801  0.3334 -0.3264  0.3925
13847SOL    HW142982   1.555   4.434   4.855  0.0443  0.1267  0.2394
13847SOL    HW242983   1.674   4.381   4.779  0.5423 -0.5033  1.4317
13848SOL     OW42984   1.931   4.116   3.628 -0.3297  0.0822  0.0488
13848SOL    HW142985   1.860   4.084   3.684 -0.1152  0.5285  0.5918
13848SOL    HW242986   2.009   4.069   3.658 -0.1253  0.6653  0.4495
13849SOL     OW42987   4.152   3.344   4.850  0.0845 -0.4924  0.9048
13849SOL    HW142988   4.214   3.414   4.829 -0.7315 -0.4540 -1.8417
13849SOL    HW242989   4.111   3.372   4.932 -0.5400  2.5294 -0.3132
13850SOL     OW42990   2.354   2.873   1.117  0.1618  0.4186 -0.4707
13850SOL    HW142991   2.421   2.809   1.140 -1.0981 -0.0892  2.1351
13850SOL    HW242992   2.404   2.950   1.090  1.7271 -0.8472 -1.3832
13851SOL     OW42993   1.870   1.249   6.556  0.9800  0.3579  0.5099
13851SOL    HW142994   1.958   1.252   6.592  0.6661 -1.7962  1.6144
13851SOL    HW242995   1.864   1.326   6.499  2.3639  2.5449  3.1137
13852SOL     OW42996   1.259   0.070   5.891 -0.2902 -0.2071 -0.1207
13852SOL    HW142997   1.225  -0.014   5.924 -1.0275 -1.1612 -3.0612
13852SOL    HW242998   1.182   0.115   5.856  0.2730  1.2776  0.4700
13853SOL     OW42999   2.553   4.337   1.590  0.0459 -0.0562 -0.3303
13853SOL    HW143000   2.459   4.355   1.596 -0.2494 -1.1464 -1.4620
13853SOL    HW243001   2.571   4.277   1.662 -0.0045  0.6026  0.2369
13854SOL     OW43002   5.693   0.998   7.788  0.1936  0.3596 -0.4480
13854SOL    HW143003   5.627   1.066   7.804 -0.7122 -0.6194  0.0907
13854SOL    HW243004   5.762   1.017   7.851 -0.7454 -0.0755  0.7665
13855SOL     OW43005   6.804   1.858   9.255 -0.5204  0.6210 -0.1943
13855SOL    HW143006   6.709   1.846   9.265 -0.2340 -1.8310  0.1753
13855SOL    HW243007   6.834   1.883   9.342 -0.8109  1.5274 -0.3395
13856SOL     OW43008   5.088   4.577   9.293 -0.0726 -0.0621  0.4635
13856SOL    HW143009   5.012   4.552   9.346 -0.4552  2.7873  1.4517
13856SOL    HW243010   5.052   4.593   9.206 -0.7191  1.3854  0.9529
13857SOL     OW43011   4.269   1.258   2.929  0.1545  0.1951  0.3253
13857SOL    HW143012   4.341   1.208   2.965 -0.7568 -2.9654 -1.8312
13857SOL    HW243013   4.301   1.348   2.926  3.5360 -0.8814  0.5627
13858SOL     OW43014   5.289   7.289   5.508 -0.5520 -0.4430 -0.6974
13858SOL    HW143015   5.305   7.383   5.495 -1.7305 -0.1147  0.0500
13858SOL    HW243016   5.194   7.280   5.501 -0.3332 -1.8972 -2.5424
13859SOL     OW43017   6.817   2.647   1.000  0.3580  0.5719 -0.4981
13859SOL    HW143018   6.790   2.575   1.056  0.8448  0.6153 -0.2020
13859SOL    HW243019   6.858   2.710   1.060 -1.9386  2.0768 -0.3983
13860SOL     OW43020   6.602   6.249   9.246 -0.5597  0.6051 -0.3771
13860SOL    HW143021   6.694   6.268   9.264 -0.5178 -0.9769  1.3792
13860SOL    HW243022   6.602   6.209   9.159  0.3795  0.9189 -0.5283
13861SOL     OW43023   1.712   2.513   8.133 -0.6413  0.4866 -0.1607
13861SOL    HW143024   1.796   2.468   8.134 -1.5147 -1.2386  0.2143
13861SOL    HW243025   1.684   2.511   8.041 -1.4823 -1.4139  0.0959
13862SOL     OW43026   4.283   2.184  12.135  0.2353 -0.6264  0.2626
13862SOL    HW143027   4.324   2.270  12.121 -0.5423 -0.2345  0.3828
13862SOL    HW243028   4.357   2.126  12.154  0.7772 -0.0052  0.1030
13863SOL     OW43029   6.000   4.222   8.665  0.0186 -0.6222  0.0567
13863SOL    HW143030   6.029   4.192   8.579 -0.5284 -2.7173  0.5263
13863SOL    HW243031   5.959   4.307   8.650 -1.9354 -1.8488 -2.1322
13864SOL     OW43032   7.301   6.639   7.961  0.1846 -0.3664  0.0868
13864SOL    HW143033   7.391   6.638   7.993  0.4024  0.8186 -0.4727
13864SOL    HW243034   7.299   6.706   7.894 -0.6954 -1.6215 -1.2068
13865SOL     OW43035   3.051   1.287   5.162 -0.3129 -0.3356 -0.1232
13865SOL    HW143036   3.004   1.257   5.240 -1.7277  1.1967 -0.3493
13865SOL    HW243037   3.100   1.363   5.191 -2.0325  1.1767 -1.0058
13866SOL     OW43038   1.475   5.318   1.484  0.0537 -0.1097 -0.4678
13866SOL    HW143039   1.421   5.374   1.541 -0.4228  0.1384 -1.1520
13866SOL    HW243040   1.484   5.368   1.403  1.3629 -0.1401 -0.3486
13867SOL     OW43041   0.306   4.867   8.534  1.6312  0.4471  0.1773
13867SOL    HW143042   0.377   4.905   8.587  0.1062  2.3117  1.0274
13867SOL    HW243043   0.303   4.922   8.456  1.2025  0.2995  0.0889
13868SOL     OW43044   6.254   1.053   1.254 -0.2051 -0.0510  0.1462
13868SOL    HW143045   6.287   0.964   1.246  0.2270 -0.0621  1.6158
13868SOL    HW243046   6.207   1.054   1.337 -0.2474  1.0699  0.1328
13869SOL     OW43047   6.920   0.697   6.050 -0.7848  0.0870  0.1735
13869SOL    HW143048   6.902   0.772   5.993 -1.3688 -1.1539 -1.3303
13869SOL    HW243049   6.839   0.646   6.049 -0.0894 -1.0504  0.4349
13870SOL     OW43050   4.084   6.289   3.576 -0.1994 -0.0309 -0.1331
13870SOL    HW143051   4.050   6.325   3.658  0.4432 -0.1768  0.2072
13870SOL    HW243052   4.035   6.333   3.507 -0.7864  0.0541  0.3324
13871SOL     OW43053   3.863   3.035   4.742 -0.4390  0.1292 -0.7904
13871SOL    HW143054   3.842   2.953   4.697 -0.1796 -0.8620  0.8067
13871SOL    HW243055   3.813   3.031   4.824  2.7852 -0.4922  1.3265
13872SOL     OW43056   3.936   7.841   7.180  0.0710  0.0856 -0.0175
13872SOL    HW143057   3.925   7.859   7.273  0.3143 -0.3253  0.0916
13872SOL    HW243058   4.031   7.832   7.168 -0.0148 -0.7309 -0.1410
13873SOL     OW43059   7.265   5.024   8.575  0.4576  0.3164  0.1000
13873SOL    HW143060   7.183   5.068   8.558  0.6164  0.6135  0.1007
13873SOL    HW243061   7.316   5.035   8.495  1.3719  2.0846  0.8663
13874SOL     OW43062   6.681   4.095  10.611  0.0473  0.1534  0.5203
13874SOL    HW143063   6.761   4.130  10.650 -0.6445  1.5382  0.7643
13874SOL    HW243064   6.706   4.009  10.578  2.0631  1.2051 -0.8564
13875SOL     OW43065   5.392   6.561   2.080  0.2885 -0.0246 -0.0309
13875SOL    HW143066   5.322   6.538   2.018  0.0769 -0.0561  0.2154
13875SOL    HW243067   5.348   6.613   2.147  0.7482  1.0364 -0.5384
13876SOL     OW43068   5.357   7.278   6.110 -0.4074 -0.1885 -0.0047
13876SOL    HW143069   5.270   7.304   6.138 -0.8468  0.6450 -1.9563
13876SOL    HW243070   5.357   7.182   6.117 -1.1614 -0.1374  0.8130
13877SOL     OW43071   5.729   3.719   0.531  0.4281 -0.8739  0.5348
13877SOL    HW143072   5.755   3.657   0.463 -0.3604 -0.5735 -0.0492
13877SOL    HW243073   5.639   3.693   0.554 -0.1501  0.4203 -0.1620
13878SOL     OW43074   3.967   0.467   5.657  0.0391 -0.0395 -0.1106
13878SOL    HW143075   3.874   0.445   5.666  0.5980 -2.1229  1.1422
13878SOL    HW243076   4.008   0.387   5.626  1.7774  0.0540  1.7628
13879SOL     OW43077   5.702   6.565   2.514  0.1152 -0.4867 -0.3653
13879SOL    HW143078   5.739   6.572   2.426 -0.7406  0.8334 -0.6581
13879SOL    HW243079   5.766   6.514   2.563  2.1530  1.3587 -0.9384
13880SOL     OW43080   1.390   4.352  11.502  0.7246  0.3744 -0.1672
13880SOL    HW143081   1.374   4.435  11.457  0.7679  0.7565  0.5124
13880SOL    HW243082   1.341   4.288  11.451 -1.1082  1.1480  0.5021
13881SOL     OW43083   2.795   7.029   6.542  0.1635  0.4063  0.3256
13881SOL    HW143084   2.761   7.019   6.631  0.7347  0.6716  0.5830
13881SOL    HW243085   2.803   7.124   6.530 -0.8989  0.4219 -0.4004
13882SOL     OW43086   0.550   2.409   1.351 -0.5775 -0.0299  0.5233
13882SOL    HW143087   0.586   2.321   1.335  0.3163  0.3394  0.4225
13882SOL    HW243088   0.612   2.449   1.411 -2.1048 -0.1922  2.3050
13883SOL     OW43089   5.295   4.451  11.608  0.2447  0.2086  0.2472
13883SOL    HW143090   5.351   4.476  11.534 -0.3830 -1.3470 -0.8141
13883SOL    HW243091   5.344   4.383  11.653  0.1953  0.4606  0.6827
13884SOL     OW43092   7.141   0.140   2.903 -0.3182  0.4350  0.3841
13884SOL    HW143093   7.188   0.058   2.889  0.3969  1.2351 -2.8986
13884SOL    HW243094   7.054   0.125   2.867 -0.5700  0.7867  0.8316
13885SOL     OW43095   7.723   2.744   5.760  0.2133  0.3652  0.2321
13885SOL    HW143096   7.657   2.675   5.766 -0.3488  0.9581  1.3551
13885SOL    HW243097   7.696   2.808   5.826  1.0180  1.3971 -0.4033
13886SOL     OW43098   6.196   5.544  10.553 -0.0503  0.2504  0.0101
13886SOL    HW143099   6.220   5.583  10.637 -0.8006 -0.3164  0.5003
13886SOL    HW243100   6.273   5.493  10.528 -0.1756 -0.3577  0.8339
13887SOL     OW43101   7.220   4.774  11.859 -0.1728 -0.2124 -0.5903
13887SOL    HW143102   7.311   4.760  11.836  0.1674 -0.0314  0.5887
13887SOL    HW243103   7.214   4.748  11.951 -0.7674  1.9557  0.0393
13888SOL     OW43104   4.842   5.355   7.392  0.2621 -0.2175  1.1014
13888SOL    HW143105   4.930   5.323   7.372 -0.1237 -1.5360  1.3624
13888SOL    HW243106   4.853   5.407   7.472  0.9625  0.5292  0.5296
13889SOL     OW43107   3.052   0.399  10.130 -0.3183  0.2201  0.3892
13889SOL    HW143108   3.100   0.437  10.203  1.0471 -0.7832  0.0575
13889SOL    HW243109   3.115   0.397  10.058 -1.9225  2.1709 -1.2071
13890SOL     OW43110   1.654   6.777  10.683  0.1907  0.4992 -0.0853
13890SOL    HW143111   1.712   6.702  10.669 -0.6226  0.0104 -1.0041
13890SOL    HW243112   1.711   6.853  10.672  0.9202  0.0320  0.3384
13891SOL     OW43113   2.567   4.711   5.106 -0.5612 -0.2608  0.1810
13891SOL    HW143114   2.618   4.644   5.062  0.2970  0.9850 -0.8001
13891SOL    HW243115   2.479   4.673   5.114 -0.0875 -1.5024 -0.2658
13892SOL     OW43116   0.593   0.386   7.968  0.4273  0.1794  0.5620
13892SOL    HW143117   0.530   0.345   8.028 -0.5297 -1.0397 -1.2068
13892SOL    HW243118   0.545   0.398   7.887  2.1710  0.2918 -0.5017
13893SOL     OW43119   1.942   2.664   1.147 -0.5614 -0.2081  0.1553
13893SOL    HW143120   1.937   2.733   1.213 -0.6036  1.2457 -1.2862
13893SOL    HW243121   2.026   2.678   1.103 -0.0683 -1.7827  0.5356
13894SOL     OW43122   5.038   5.159   9.060 -0.5980  0.0731  0.6042
13894SOL    HW143123   4.950   5.194   9.053 -0.0005  1.3395 -1.2091
13894SOL    HW243124   5.035   5.078   9.010 -0.2602  1.1707 -1.2684
13895SOL     OW43125   5.646   5.710  10.831 -0.2480 -0.5317 -0.0807
13895SOL    HW143126   5.628   5.620  10.857 -2.1342 -0.2796 -0.3654
13895SOL    HW243127   5.569   5.759  10.860  1.0504  1.1349  0.7010
13896SOL     OW43128   4.836   1.344   2.931 -0.8129  0.5724 -0.2923
13896SOL    HW143129   4.911   1.402   2.924 -0.5208  0.2637  0.2109
13896SOL    HW243130   4.872   1.256   2.919 -0.8606  0.3145  1.2360
13897SOL     OW43131   4.552   7.272   7.327  0.0780  0.0980  0.1643
13897SOL    HW143132   4.528   7.182   7.349 -0.7843 -0.0969 -1.4233
13897SOL    HW243133   4.647   7.277   7.343  0.1910 -1.1856 -0.0701
13898SOL     OW43134   2.805   7.833   1.792 -0.6371  0.3517 -0.3514
13898SOL    HW143135   2.901   7.828   1.793 -0.6362  0.3376  0.5506
13898SOL    HW243136   2.785   7.915   1.748 -0.1520  1.1764  0.8940
13899SOL     OW43137   2.292   1.196   3.016 -0.1171  0.0733 -0.5781
13899SOL    HW143138   2.220   1.196   3.079  0.3765 -1.6826  0.0574
13899SOL    HW243139   2.329   1.284   3.022  1.8915 -0.7657  4.0262
13900SOL     OW43140   3.888   1.239   1.779 -0.4294 -0.1651 -0.1210
13900SOL    HW143141   3.794   1.237   1.796 -0.5732 -0.9315 -0.9214
13900SOL    HW243142   3.902   1.167   1.717  0.5492  0.4894 -0.6720
13901SOL     OW43143   0.553   3.945   2.535 -0.5491  0.4551 -0.1275
13901SOL    HW143144   0.557   4.016   2.470 -0.1151  0.8278  0.3011
13901SOL    HW243145   0.639   3.903   2.529 -1.3082 -0.9987 -1.4369
13902SOL     OW43146   5.261   2.881   0.003 -0.1281 -0.0576 -0.2622
13902SOL    HW143147   5.320   2.832  -0.053 -0.2364  1.9789 -2.3179
13902SOL    HW243148   5.318   2.924   0.067 -0.0329 -2.6453  1.5338
13903SOL     OW43149   1.343   6.240   7.678 -0.3906 -0.1808  0.2867
13903SOL    HW143150   1.318   6.322   7.635 -1.8791 -1.3362 -1.1982
13903SOL    HW243151   1.273   6.223   7.740 -1.2781 -1.3925 -0.9868
13904SOL     OW43152   6.810   1.187   4.708  0.3263  0.3089  0.4335
13904SOL    HW143153   6.876   1.118   4.711 -0.2011 -0.2779 -0.6451
13904SOL    HW243154   6.846   1.253   4.649 -0.3423 -0.3731 -0.7840
13905SOL     OW43155   2.947   4.006  10.704 -0.2345  0.5804 -0.4060
13905SOL    HW143156   2.912   4.054  10.629 -0.0707 -0.3953 -1.1318
13905SOL    HW243157   2.979   3.924  10.667 -1.4386 -0.5492  0.9265
13906SOL     OW43158   6.811   6.903   3.481  0.3479  0.1413  0.0425
13906SOL    HW143159   6.835   6.940   3.567  1.6573  1.6216 -0.8887
13906SOL    HW243160   6.786   6.979   3.429 -0.1347 -0.7030 -0.9863
13907SOL     OW43161   7.200   0.095   9.856  0.0889 -0.0281  0.2159
13907SOL    HW143162   7.121   0.055   9.820  0.5391  0.0862 -0.9640
13907SOL    HW243163   7.245   0.024   9.901 -0.1514 -0.3590 -0.0644
13908SOL     OW43164   0.835   2.876   9.554  0.5063  0.0931 -0.2515
13908SOL    HW143165   0.789   2.793   9.566 -0.1969  0.1320 -2.3385
13908SOL    HW243166   0.887   2.864   9.474  1.6082  1.1619  0.2630
13909SOL     OW43167   1.691   5.697   7.043 -0.2933 -0.3655  0.3748
13909SOL    HW143168   1.711   5.732   6.956  0.7898  0.4248  0.9089
13909SOL    HW243169   1.596   5.704   7.051 -0.2924  0.6620 -0.2967
13910SOL     OW43170   2.540   3.542   0.518  0.1585 -0.0804  0.1472
13910SOL    HW143171   2.486   3.506   0.588 -1.6527  0.5483 -0.8450
13910SOL    HW243172   2.562   3.467   0.463  0.7600 -0.4201  0.8331
13911SOL     OW43173   1.628   0.846  11.325  0.3067  0.3251  0.2510
13911SOL    HW143174   1.617   0.936  11.356  1.4183  0.2922  0.7853
13911SOL    HW243175   1.719   0.842  11.296  0.2123 -0.5849  0.0621
13912SOL     OW43176   2.046   7.741  12.293  0.1506 -0.4914  0.1660
13912SOL    HW143177   2.036   7.646  12.302  0.3041 -0.4149  1.2932
13912SOL    HW243178   2.106   7.765  12.364 -0.5972  0.5657  0.4646
13913SOL     OW43179   2.130   6.858   3.874 -0.5340 -0.0509  0.1642
13913SOL    HW143180   2.044   6.850   3.832 -0.1121 -0.8888 -0.5863
13913SOL    HW243181   2.182   6.788   3.835  0.5449  0.5482  0.4840
13914SOL     OW43182   5.051   0.654   8.716 -0.0209 -0.4007  0.1771
13914SOL    HW143183   5.083   0.744   8.711 -2.3172  0.4149 -1.5712
13914SOL    HW243184   5.073   0.626   8.805 -0.8127  2.5151  1.4192
13915SOL     OW43185   1.569   5.488   7.258  0.8408 -0.0063  0.1154
13915SOL    HW143186   1.644   5.488   7.199 -1.4013  0.5749 -2.9873
13915SOL    HW243187   1.513   5.417   7.226 -1.1012  1.2063  0.6292
13916SOL     OW43188   4.708   5.313   4.951  0.6531 -0.1140 -0.1058
13916SOL    HW143189   4.746   5.340   5.034  0.5045 -0.0132 -0.0692
13916SOL    HW243190   4.669   5.393   4.916 -0.9087 -0.5284  0.6015
13917SOL     OW43191   7.266   7.931   7.365 -0.6973 -0.4643  0.0295
13917SOL    HW143192   7.280   7.987   7.289  0.5730  0.6065  0.9987
13917SOL    HW243193   7.307   7.848   7.342  0.1055  0.0077 -0.2774
13918SOL     OW43194   0.293   4.266   4.266  0.1550 -0.1175 -0.0487
13918SOL    HW143195   0.301   4.301   4.355  1.2179 -1.6715  0.5318
13918SOL    HW243196   0.205   4.290   4.238 -0.4531 -0.1358  1.6947
13919SOL     OW43197   4.106   4.929   7.536  0.4450 -0.1608 -0.3329
13919SOL    HW143198   4.183   4.916   7.481  0.4406  1.2644 -0.7264
13919SOL    HW243199   4.066   4.842   7.543  1.6729 -0.7812 -0.7236
13920SOL     OW43200   7.015   5.131   9.173  0.1795  0.0569 -0.3004
13920SOL    HW143201   6.936   5.174   9.206 -1.6079 -4.1833  1.8034
13920SOL    HW243202   6.990   5.099   9.086  0.2718  0.3341 -0.4294
13921SOL     OW43203   0.008   6.475  12.197  0.3315 -0.1002 -0.3160
13921SOL    HW143204  -0.059   6.421  12.239 -0.6201  1.0448 -0.3349
13921SOL    HW243205   0.063   6.506  12.270  0.7625 -0.9017 -0.2852
13922SOL     OW43206   6.635   1.034   5.903 -0.5133 -0.1211 -0.1605
13922SOL    HW143207   6.625   1.065   5.993  1.2384  1.2248 -0.3901
13922SOL    HW243208   6.716   0.984   5.903 -0.6251 -0.3196 -0.9402
13923SOL     OW43209   7.482   6.687  12.368  0.1847 -0.4610  0.5512
13923SOL    HW143210   7.478   6.598  12.334 -0.2849  0.0963 -0.9529
13923SOL    HW243211   7.555   6.728  12.321 -0.4774  0.3308  0.1791
13924SOL     OW43212   2.453   4.826   2.960 -0.1326  0.3624 -0.3578
13924SOL    HW143213   2.525   4.883   2.985 -1.7399  3.3192 -1.8787
13924SOL    HW243214   2.374   4.880   2.971 -1.8661 -1.7730 -1.3578
13925SOL     OW43215   0.179   7.070   8.799 -0.5906  0.6984 -0.1771
13925SOL    HW143216   0.272   7.072   8.778 -0.3368  0.1934  0.8310
13925SOL    HW243217   0.168   7.136   8.867 -1.3450  2.1007 -1.5893
13926SOL     OW43218   1.530   5.624   4.453 -0.3741  0.0625 -0.1055
13926SOL    HW143219   1.479   5.655   4.527 -0.9092  1.5563 -1.0442
13926SOL    HW243220   1.465   5.608   4.384  0.3198  1.4066 -1.1220
13927SOL     OW43221   0.896   1.540   3.460 -0.3173 -0.5617  1.2451
13927SOL    HW143222   0.962   1.515   3.524 -0.4137 -3.8827  0.2056
13927SOL    HW243223   0.828   1.474   3.468 -0.6048 -0.7615 -1.8426
13928SOL     OW43224   5.533   3.812   6.620 -0.3854 -0.3315  0.3385
13928SOL    HW143225   5.451   3.840   6.579 -2.1946 -0.4950  3.5095
13928SOL    HW243226   5.535   3.858   6.703  3.4474  0.5747 -0.1038
13929SOL     OW43227   4.657   5.913   2.843  0.2383  0.3014 -0.1680
13929SOL    HW143228   4.725   5.955   2.895 -0.3041 -0.1522  0.9387
13929SOL    HW243229   4.585   5.901   2.904 -1.2155  1.6081 -1.5268
13930SOL     OW43230   2.378   7.483   5.329  0.5446 -0.8459 -0.4245
13930SOL    HW143231   2.347   7.401   5.366  0.1076 -0.4209  0.1869
13930SOL    HW243232   2.310   7.509   5.267  0.0048 -0.2841  0.3745
13931SOL     OW43233   0.542   6.869   1.998 -0.0909  0.5555 -0.1462
13931SOL    HW143234   0.593   6.930   1.945  0.2917  1.5886  1.3736
13931SOL    HW243235   0.455   6.868   1.956  0.4560  0.6162 -1.3259
13932SOL     OW43236   0.179   5.502   4.613  0.0602 -0.5071 -0.6283
13932SOL    HW143237   0.210   5.477   4.526  1.5133 -0.3842 -0.1789
13932SOL    HW243238   0.212   5.433   4.671  0.2850  0.1185  0.0058
13933SOL     OW43239   4.620   5.478   2.818 -0.3745  0.6739  0.2242
13933SOL    HW143240   4.568   5.500   2.895 -0.0921  1.8000  0.1113
13933SOL    HW243241   4.641   5.563   2.779 -0.8027  0.1192 -1.2843
13934SOL     OW43242   2.359   7.946   2.358 -0.5870  0.2452 -0.1268
13934SOL    HW143243   2.383   8.037   2.338  2.5779  0.2769  2.8672
13934SOL    HW243244   2.403   7.894   2.291  0.2930  0.7792  0.0297
13935SOL     OW43245   1.026   0.501  10.662 -1.3361  0.2724 -0.0930
13935SOL    HW143246   0.998   0.590  10.642  0.6651  0.7176 -1.2345
13935SOL    HW243247   1.010   0.452  10.582 -0.8266  0.0554 -0.0689
13936SOL     OW43248   0.438   5.048   6.973 -0.3702  0.4674 -0.6420
13936SOL    HW143249   0.533   5.050   6.962 -0.3738  1.5624 -0.5954
13936SOL    HW243250   0.425   5.040   7.067 -0.3405 -0.7531 -0.7230
13937SOL     OW43251   5.498   3.939   8.746  0.0097 -0.5800 -0.0123
13937SOL    HW143252   5.411   3.900   8.754  0.0538 -0.8008 -0.5975
13937SOL    HW243253   5.559   3.868   8.763  0.1243  0.1083  3.1443
13938SOL     OW43254   0.324   1.827   8.170 -0.0658  0.2379 -0.3037
13938SOL    HW143255   0.308   1.885   8.096 -0.7827 -0.0771 -0.4041
13938SOL    HW243256   0.244   1.831   8.222  0.4163  0.4315  0.4454
13939SOL     OW43257   4.943   3.070   4.679  0.3915  0.3445  0.3490
13939SOL    HW143258   4.942   3.131   4.605  1.4486  1.4763  1.2197
13939SOL    HW243259   4.998   2.997   4.649  0.2131  0.4422 -0.2324
13940SOL     OW43260   7.199   2.245   8.776  0.0126 -0.2648  0.5429
13940SOL    HW143261   7.281   2.227   8.822  0.3623 -0.0937 -0.0058
13940SOL    HW243262   7.133   2.195   8.825  0.3647 -0.0546  1.2495
13941SOL     OW43263   6.739   0.633  10.569  0.5149 -0.2040  0.3182
13941SOL    HW143264   6.720   0.717  10.609  0.2884 -0.5409  0.9222
13941SOL    HW243265   6.816   0.600  10.616  1.8824  0.5624 -1.2444
13942SOL     OW43266   2.995   2.520   4.225 -0.5137 -0.0413  0.4589
13942SOL    HW143267   3.004   2.529   4.319 -0.8020  1.8022  0.3433
13942SOL    HW243268   2.904   2.492   4.211 -0.3255 -0.8138  0.7306
13943SOL     OW43269   3.104   1.516   2.671 -0.1315  0.2735 -0.2752
13943SOL    HW143270   3.199   1.517   2.685 -0.1973 -0.0967  0.2295
13943SOL    HW243271   3.076   1.431   2.706 -0.6062  0.2460 -0.7197
13944SOL     OW43272   3.224   1.932   3.947 -0.3142  0.3944 -0.0602
13944SOL    HW143273   3.179   2.012   3.972  1.1862  1.0949  0.5357
13944SOL    HW243274   3.293   1.922   4.013  0.7825 -0.2977 -1.2795
13945SOL     OW43275   3.658   5.753   7.113  0.1646 -0.1664 -0.1804
13945SOL    HW143276   3.589   5.717   7.169  0.2680 -2.0901 -1.2150
13945SOL    HW243277   3.727   5.778   7.173  0.0542 -1.6814  0.6200
13946SOL     OW43278   4.637   7.091  10.641  0.0533  0.3311  0.4001
13946SOL    HW143279   4.691   7.052  10.711 -1.8285  0.0800  1.7934
13946SOL    HW243280   4.572   7.023  10.621 -0.9139  1.3161  0.1242
13947SOL     OW43281   5.857   3.526   7.493  0.0857  0.4510 -0.7829
13947SOL    HW143282   5.911   3.512   7.415 -0.7962 -0.4976 -1.2402
13947SOL    HW243283   5.833   3.619   7.488  2.1285  1.0545 -0.2501
13948SOL     OW43284   0.754   1.017   3.547 -0.2177 -0.1180 -0.3541
13948SOL    HW143285   0.772   1.077   3.620  0.2715  0.1665 -0.7019
13948SOL    HW243286   0.668   1.044   3.515 -0.3134 -0.0630 -0.0530
13949SOL     OW43287   6.498   5.502   5.845 -0.1644 -0.1836  0.2315
13949SOL    HW143288   6.426   5.557   5.877  0.8655  1.7059 -0.5076
13949SOL    HW243289   6.490   5.506   5.749  0.3918 -0.7089  0.1570
13950SOL     OW43290   7.642   4.583  11.672  0.0145  0.2010  0.5334
13950SOL    HW143291   7.576   4.614  11.734 -1.5695 -2.9021  0.5731
13950SOL    HW243292   7.704   4.533  11.725 -0.6051 -1.3390 -0.1266
13951SOL     OW43293   5.750   1.181   2.803  0.3823 -0.0163  0.1193
13951SOL    HW143294   5.820   1.119   2.786 -1.1276 -1.6819 -0.3585
13951SOL    HW243295   5.679   1.154   2.744 -0.1802  2.4690 -0.4467
13952SOL     OW43296   6.183   6.220   4.832  0.0255 -0.0502 -0.5164
13952SOL    HW143297   6.147   6.308   4.823  0.9868  0.5137  0.6771
13952SOL    HW243298   6.268   6.234   4.875 -0.9457 -1.7158  2.2077
13953SOL     OW43299   3.736   3.531   6.045 -0.5033  0.1550  0.6951
13953SOL    HW143300   3.745   3.623   6.020  0.1899 -0.5809 -2.0930
13953SOL    HW243301   3.703   3.533   6.135  1.1732  3.1109  1.3513
13954SOL     OW43302   6.949   0.156   7.487  0.1710  0.1195 -0.1767
13954SOL    HW143303   6.873   0.156   7.429  0.0106 -0.6740  0.0248
13954SOL    HW243304   6.980   0.066   7.487  0.3351  0.1579  0.7458
13955SOL     OW43305   0.105   2.872  10.159  0.4956  0.1387 -0.1719
13955SOL    HW143306   0.090   2.966  10.166  1.2023  0.2684 -0.2546
13955SOL    HW243307   0.182   2.865  10.102  0.2140 -0.5058 -0.4824
13956SOL     OW43308   4.797   3.452   9.004 -0.1119 -0.3284 -0.1431
13956SOL    HW143309   4.812   3.473   9.096  2.1310 -0.1688 -0.5038
13956SOL    HW243310   4.721   3.505   8.979 -0.8584 -0.5117  1.6454
13957SOL     OW43311   0.708   3.929   5.084  0.1572 -0.6094 -0.4020
13957SOL    HW143312   0.779   3.882   5.127  2.0422  1.1884 -1.3925
13957SOL    HW243313   0.744   4.014   5.063 -2.9300  1.1633  0.7780
13958SOL     OW43314   4.816   4.193   7.761 -0.1177 -0.4382  0.0030
13958SOL    HW143315   4.806   4.116   7.705 -0.0292 -1.1837  0.9860
13958SOL    HW243316   4.834   4.158   7.848 -2.0908  0.6421  0.9181
13959SOL     OW43317   5.840   6.184  10.429 -0.3158 -0.7575 -0.1730
13959SOL    HW143318   5.877   6.167  10.343 -2.3448  0.0729 -1.2570
13959SOL    HW243319   5.857   6.276  10.445 -0.7120 -0.7027 -0.0599
13960SOL     OW43320   0.248   6.279   9.771 -0.1068  0.3777 -0.0050
13960SOL    HW143321   0.270   6.324   9.690  0.5383  0.4073  0.1807
13960SOL    HW243322   0.155   6.258   9.762 -0.1380  0.7306 -0.5778
13961SOL     OW43323   3.105   7.278   6.365  0.3208  0.2469 -0.4643
13961SOL    HW143324   3.028   7.263   6.419 -0.7601  1.3496 -1.6450
13961SOL    HW243325   3.087   7.231   6.283  1.6441 -0.8459 -0.1817
13962SOL     OW43326   0.968   0.306   1.984 -0.2320 -0.2870  0.2483
13962SOL    HW143327   0.880   0.276   1.961 -0.6156 -0.3497  1.6865
13962SOL    HW243328   0.979   0.387   1.935 -1.5537  0.3129  0.8824
13963SOL     OW43329   4.378   0.727  10.683 -0.0823  0.0687  0.2727
13963SOL    HW143330   4.376   0.647  10.736  1.0380  0.2671  0.6409
13963SOL    HW243331   4.393   0.797  10.747  2.7797  0.1721 -0.3615
13964SOL     OW43332   2.349   3.342   3.221 -0.2424 -0.2970  0.6726
13964SOL    HW143333   2.288   3.408   3.187 -0.7989 -1.3462 -0.4459
13964SOL    HW243334   2.435   3.375   3.196 -0.5841 -0.5615 -1.0208
13965SOL     OW43335   3.853   6.620   7.107 -0.2468 -0.0550  0.1775
13965SOL    HW143336   3.857   6.580   7.020 -0.8664 -0.4388  0.3150
13965SOL    HW243337   3.833   6.712   7.091  1.5034  0.2959 -0.1593
13966SOL     OW43338   0.094   0.372  11.363  0.4282 -0.3243  0.0070
13966SOL    HW143339   0.081   0.292  11.312 -0.2405 -0.4591  0.3918
13966SOL    HW243340   0.014   0.382  11.414 -1.2168  2.5708 -2.7406
13967SOL     OW43341   3.746   4.728   7.891 -0.3638 -0.8081  0.2309
13967SOL    HW143342   3.826   4.769   7.858 -1.1002  0.0631 -0.5492
13967SOL    HW243343   3.764   4.712   7.983  0.5987 -0.3485  0.1426
13968SOL     OW43344   7.813   1.775  12.078 -0.1830  0.4568  0.3222
13968SOL    HW143345   7.852   1.798  12.162  0.6602 -0.8576  0.3322
13968SOL    HW243346   7.887   1.742  12.026 -0.3908  2.5068 -1.4661
13969SOL     OW43347   5.775   3.813   6.102 -0.2829 -0.1293 -0.1185
13969SOL    HW143348   5.788   3.884   6.165  0.0566  1.1344 -1.5502
13969SOL    HW243349   5.846   3.824   6.039 -1.0520 -0.8841 -1.1403
13970SOL     OW43350   2.149   1.600   5.664  0.4532 -0.2540 -0.1875
13970SOL    HW143351   2.069   1.625   5.710  1.2115 -0.9686  1.6414
13970SOL    HW243352   2.205   1.678   5.669 -0.4395  0.5832 -2.3330
13971SOL     OW43353   2.541   3.482   9.658 -0.0521  0.6079 -0.2827
13971SOL    HW143354   2.636   3.488   9.660  0.1277 -1.7498  0.6441
13971SOL    HW243355   2.523   3.391   9.635 -2.0728  0.7957  0.3656
13972SOL     OW43356   7.353   3.951   3.268 -0.0937  0.4637 -0.2562
13972SOL    HW143357   7.423   4.015   3.279 -0.2723  0.9413 -1.6669
13972SOL    HW243358   7.278   4.002   3.237 -1.1907  0.0095  1.4884
13973SOL     OW43359   1.930   1.568   7.187 -0.0040  0.2435  0.2496
13973SOL    HW143360   1.884   1.514   7.124 -0.9885 -1.5991  2.4412
13973SOL    HW243361   2.023   1.554   7.168 -0.2853 -0.4685 -0.6218
13974SOL     OW43362   1.077   1.587   7.310  0.3585  0.4003  0.2808
13974SOL    HW143363   1.107   1.590   7.219  0.4047 -0.4146  0.2587
13974SOL    HW243364   1.151   1.618   7.362  0.8363 -0.4768  0.1396
13975SOL     OW43365   2.869   6.247   3.924 -0.3022  0.2311  0.5662
13975SOL    HW143366   2.838   6.193   3.997 -0.5333  1.1362  1.1486
13975SOL    HW243367   2.831   6.206   3.847 -3.1276  1.3571  1.2392
13976SOL     OW43368   3.671   6.659   6.567  0.1379 -0.1173  0.2508
13976SOL    HW143369   3.647   6.724   6.501 -0.6114  1.4127  1.9544
13976SOL    HW243370   3.757   6.687   6.598  1.4881 -2.0431 -1.4593
13977SOL     OW43371   7.412   4.990  11.755  0.2264 -0.7697  0.0943
13977SOL    HW143372   7.383   5.049  11.685 -0.4910 -1.3744 -0.1309
13977SOL    HW243373   7.332   4.944  11.781  0.7009 -1.3319  0.5625
13978SOL     OW43374   3.584   5.595   9.885 -0.0461  0.1992  0.0380
13978SOL    HW143375   3.538   5.590   9.802 -1.8239  0.7171  0.9486
13978SOL    HW243376   3.610   5.687   9.893  1.6976 -0.1915 -0.7179
13979SOL     OW43377   3.669   6.172  10.205  0.1096  0.5129 -0.1076
13979SOL    HW143378   3.574   6.176  10.219  0.3006  2.8254  0.9842
13979SOL    HW243379   3.703   6.134  10.286  0.1738  0.4397 -0.1693
13980SOL     OW43380   6.101   0.230   1.863 -0.3794  0.1901  0.9249
13980SOL    HW143381   6.105   0.261   1.772 -1.7660 -0.0145  0.7744
13980SOL    HW243382   6.007   0.221   1.881 -0.1396  0.7035  2.5437
13981SOL     OW43383   2.802   5.176   9.144  0.1048  0.6637 -0.5581
13981SOL    HW143384   2.728   5.115   9.144 -0.0128  0.8018 -1.3286
13981SOL    HW243385   2.832   5.176   9.235 -1.6082  1.5448  0.0659
13982SOL     OW43386   4.061   1.072   6.566 -0.0970  0.1076  0.0724
13982SOL    HW143387   4.122   1.124   6.514 -0.7526  2.0094  1.1106
13982SOL    HW243388   4.108   0.990   6.583  0.6638 -0.0214 -2.2755
13983SOL     OW43389   7.829   5.966   0.427 -0.3500  0.2626  0.0571
13983SOL    HW143390   7.834   5.893   0.365 -1.2227 -1.7172  2.2114
13983SOL    HW243391   7.920   5.996   0.435 -0.1159  0.1072 -1.5903
13984SOL     OW43392   2.715   0.427   9.941  0.4749 -0.2388 -0.4018
13984SOL    HW143393   2.708   0.499   9.878 -0.9122 -1.5264 -1.8128
13984SOL    HW243394   2.741   0.351   9.888 -1.0070 -1.4261  0.4905
13985SOL     OW43395   2.794   0.848  11.270 -0.2560  0.1592 -0.2399
13985SOL    HW143396   2.844   0.906  11.327 -0.4147 -0.3470  0.4260
13985SOL    HW243397   2.704   0.881  11.276 -1.1461 -2.3202  3.1582
13986SOL     OW43398   5.082   6.573   6.651  0.7425 -0.1685 -0.7594
13986SOL    HW143399   4.988   6.590   6.649  0.4605 -1.4531 -0.0400
13986SOL    HW243400   5.120   6.638   6.593 -0.5071  0.8959 -0.4270
13987SOL     OW43401   5.300   4.403   2.838  0.3061 -0.9804 -0.3154
13987SOL    HW143402   5.364   4.454   2.788 -1.0070  0.5660 -0.4980
13987SOL    HW243403   5.337   4.400   2.927 -0.4203  2.0243  0.2143
13988SOL     OW43404   4.963   4.519   6.620  0.0079  0.1638 -0.2396
13988SOL    HW143405   4.900   4.452   6.595  0.8639  0.0262 -2.2107
13988SOL    HW243406   5.027   4.473   6.674 -1.2494  0.1928  1.3325
13989SOL     OW43407   7.216   1.754   5.113 -0.1939  0.3189  0.3867
13989SOL    HW143408   7.260   1.796   5.040 -0.0680 -1.3061 -0.5370
13989SOL    HW243409   7.123   1.760   5.092 -0.1274 -0.6788 -0.2367
13990SOL     OW43410   6.809   0.664  11.186  0.8317 -0.1894  0.4430
13990SOL    HW143411   6.898   0.646  11.216  1.3932 -1.5166 -1.8044
13990SOL    HW243412   6.820   0.709  11.102 -0.5940 -0.3859  0.1168
13991SOL     OW43413   6.585   7.728  11.024 -0.0657  0.6863  0.1453
13991SOL    HW143414   6.640   7.727  10.946 -0.0215  0.3004  0.1772
13991SOL    HW243415   6.533   7.808  11.016  1.1218  1.5225  0.5528
13992SOL     OW43416   0.257   2.178   6.664 -0.0726 -0.3812  0.0559
13992SOL    HW143417   0.204   2.255   6.687 -0.5186 -0.7161  0.1516
13992SOL    HW243418   0.321   2.212   6.602 -0.4643  0.0126 -0.1426
13993SOL     OW43419   1.652   5.997   3.118 -0.1954 -0.1651  0.4491
13993SOL    HW143420   1.589   5.939   3.161 -1.6776  0.7192 -0.4181
13993SOL    HW243421   1.711   6.025   3.187 -2.2304  0.8640  1.8662
13994SOL     OW43422   1.137   3.863  11.883  0.3901  0.4657 -0.6816
13994SOL    HW143423   1.228   3.853  11.854  0.5698  1.1319 -0.3769
13994SOL    HW243424   1.088   3.803  11.828  1.2985 -1.6934  0.7360
13995SOL     OW43425   6.609   7.833  10.448 -0.9388  0.9300  0.1673
13995SOL    HW143426   6.525   7.796  10.423 -1.0138 -0.1318  1.8376
13995SOL    HW243427   6.588   7.899  10.515 -0.4823  0.9364  0.3126
13996SOL     OW43428   0.299   6.079   2.020 -0.2270 -0.7226  0.3192
13996SOL    HW143429   0.363   6.012   1.995 -0.5846 -0.3883 -1.7035
13996SOL    HW243430   0.214   6.038   2.005 -0.5323 -1.0014  2.5412
13997SOL     OW43431   1.246   1.805   2.094 -0.3017  0.6777  0.0043
13997SOL    HW143432   1.273   1.809   2.002 -0.3775  0.0484 -0.0443
13997SOL    HW243433   1.283   1.885   2.132  0.0166  0.7784 -0.4955
13998SOL     OW43434   3.350   6.962   0.130 -0.3561 -0.3953  0.6215
13998SOL    HW143435   3.262   6.927   0.147 -1.3729  1.8372  0.2872
13998SOL    HW243436   3.354   6.972   0.035 -0.1528  0.4726  0.7125
13999SOL     OW43437   7.813   0.913   7.844 -0.1882 -0.5638  0.0348
13999SOL    HW143438   7.869   0.854   7.792 -0.0634 -0.0254 -0.4454
13999SOL    HW243439   7.783   0.978   7.782 -0.7129 -0.3904  0.4707
14000SOL     OW43440   1.894   2.804   7.156  0.2520 -0.4685 -0.1533
14000SOL    HW143441   1.819   2.838   7.107  1.4729 -0.2289 -1.9178
14000SOL    HW243442   1.909   2.869   7.225 -0.7416 -0.1927 -0.1874
14001SOL     OW43443   6.774   1.056   7.680 -0.4182  0.0380  0.2842
14001SOL    HW143444   6.690   1.013   7.697 -0.6963  0.7017  0.5955
14001SOL    HW243445   6.751   1.137   7.634  0.2046 -0.9201 -1.8339
14002SOL     OW43446   0.285   2.266   1.497  0.3154 -0.3796 -0.7019
14002SOL    HW143447   0.299   2.200   1.564 -0.4656  1.1220  1.0496
14002SOL    HW243448   0.194   2.254   1.470  0.1763 -0.0585 -0.3908
14003SOL     OW43449   7.929   2.997  10.800  0.4692 -0.3788 -0.3227
14003SOL    HW143450   8.009   3.046  10.818  0.4883 -0.2158 -0.8478
14003SOL    HW243451   7.867   3.062  10.768  0.3328 -0.6144 -0.5441
14004SOL     OW43452   7.553   3.598   7.071  0.4150 -0.0624 -0.2245
14004SOL    HW143453   7.551   3.536   7.144 -0.5228  0.8136  0.5299
14004SOL    HW243454   7.542   3.544   6.993  0.4091 -0.9198  0.3529
14005SOL     OW43455   0.329   2.471  11.716 -0.1683  0.3641  0.3504
14005SOL    HW143456   0.401   2.458  11.655 -1.4247 -1.0737 -0.9377
14005SOL    HW243457   0.370   2.477  11.802  1.3803 -2.0424 -0.1449
14006SOL     OW43458   0.522   7.433   2.641 -0.1948  0.5183  0.5580
14006SOL    HW143459   0.558   7.361   2.588  1.5000  0.0120  2.2852
14006SOL    HW243460   0.585   7.504   2.631 -0.6414  0.9461  0.7290
14007SOL     OW43461   3.015   7.546   1.842  0.6846  0.6967 -0.4168
14007SOL    HW143462   3.100   7.526   1.805 -0.0445  0.8511 -2.2719
14007SOL    HW243463   3.000   7.638   1.823 -0.8154  0.1571 -2.1697
14008SOL     OW43464   2.955   7.257   5.611  0.3770 -0.0205  0.4273
14008SOL    HW143465   2.954   7.169   5.649  1.4789  0.1417  0.8678
14008SOL    HW243466   2.887   7.254   5.544 -1.6030 -0.3342  2.3379
14009SOL     OW43467   2.482   5.435   6.270 -0.2132 -0.0067 -0.4217
14009SOL    HW143468   2.397   5.428   6.228  1.1337 -0.6402 -3.2819
14009SOL    HW243469   2.523   5.349   6.258  1.5744  0.8502 -0.9240
14010SOL     OW43470   5.353   0.203  11.909  0.6174 -0.1592  0.1234
14010SOL    HW143471   5.412   0.185  11.836  2.2450  0.8317  1.1473
14010SOL    HW243472   5.304   0.281  11.882 -0.9668 -1.4937 -1.1042
14011SOL     OW43473   7.292   4.764  12.236  0.0187  0.1884  0.2597
14011SOL    HW143474   7.296   4.754  12.331 -0.2272 -0.2916  0.2204
14011SOL    HW243475   7.271   4.856  12.223 -0.9095  0.0495  0.6894
14012SOL     OW43476   6.814   6.725   1.754  0.3350 -0.1627  0.2573
14012SOL    HW143477   6.771   6.658   1.806  1.4220 -0.7601  0.4133
14012SOL    HW243478   6.869   6.773   1.816 -1.7079  2.0487  0.5097
14013SOL     OW43479   6.392   7.335   7.914  0.4969 -0.3044 -0.6759
14013SOL    HW143480   6.328   7.327   7.843  1.0984 -0.4404 -1.2109
14013SOL    HW243481   6.411   7.429   7.918 -2.1363  0.2768  1.6636
14014SOL     OW43482   2.434   4.392   2.942 -0.6509 -0.2164 -0.0780
14014SOL    HW143483   2.367   4.338   2.901 -1.5616  0.2757  0.7292
14014SOL    HW243484   2.463   4.342   3.018 -1.5744  0.4508  0.7350
14015SOL     OW43485   6.600   6.288   2.018  0.3070  0.7335 -0.3586
14015SOL    HW143486   6.692   6.272   2.000  0.1301  0.3027 -0.8945
14015SOL    HW243487   6.553   6.224   1.965 -0.3506  1.7151 -0.9935
14016SOL     OW43488   7.622   3.532   2.644 -0.0242 -0.0142  0.7176
14016SOL    HW143489   7.632   3.578   2.727  1.1987 -0.5431  0.8906
14016SOL    HW243490   7.689   3.570   2.587 -1.9504  1.5641 -0.6326
14017SOL     OW43491   6.669   0.359   6.989  0.0667  0.2778 -0.4612
14017SOL    HW143492   6.642   0.296   6.923  2.3908  0.1036 -1.3380
14017SOL    HW243493   6.702   0.305   7.062  2.5899  0.3560 -1.4400
14018SOL     OW43494   5.171   0.125   1.987  0.0747  0.5520  0.2433
14018SOL    HW143495   5.203   0.052   2.041 -0.2813 -0.1793 -0.5138
14018SOL    HW243496   5.181   0.202   2.043 -2.3250 -0.4361  2.2294
14019SOL     OW43497   2.673   3.316   6.989  0.1430 -0.2402 -0.4316
14019SOL    HW143498   2.638   3.283   7.072  1.5596  0.5351  0.5302
14019SOL    HW243499   2.679   3.239   6.933  2.6721 -1.5830  1.4778
14020SOL     OW43500   1.569   6.205   6.201  0.2306  0.2534 -0.0225
14020SOL    HW143501   1.594   6.248   6.120  0.1304 -2.4092 -1.5944
14020SOL    HW243502   1.644   6.152   6.225  0.1359  0.7400  1.4923
14021SOL     OW43503   4.683   6.292  11.994  0.1517 -0.3147 -0.2622
14021SOL    HW143504   4.772   6.268  11.969  0.6007 -0.4816  1.3574
14021SOL    HW243505   4.633   6.211  11.984  0.3230 -0.3906 -0.5232
14022SOL     OW43506   5.141   2.240   8.488 -0.4646  0.5504  0.4593
14022SOL    HW143507   5.201   2.314   8.486 -0.1928  0.3608 -1.7611
14022SOL    HW243508   5.173   2.184   8.558  1.2449  1.0372  0.1027
14023SOL     OW43509   6.652   6.049   3.602  0.4321  0.3588 -0.3582
14023SOL    HW143510   6.633   6.128   3.552  0.5908  1.2751  0.9830
14023SOL    HW243511   6.730   6.013   3.562 -0.1887  0.3404 -1.5906
14024SOL     OW43512   4.495   5.847   2.457 -0.2484  0.1030  0.6028
14024SOL    HW143513   4.449   5.906   2.397  1.5009 -0.4506 -1.3839
14024SOL    HW243514   4.585   5.844   2.425 -0.0602 -3.0310  1.0871
14025SOL     OW43515   3.117   1.763  10.660 -0.0035 -0.1317 -0.2969
14025SOL    HW143516   3.149   1.833  10.718  0.5830 -1.6591  1.3438
14025SOL    HW243517   3.029   1.745  10.692 -0.8189  0.9330 -1.8126
14026SOL     OW43518   6.591   7.172   3.385  0.0951 -0.2313  0.5137
14026SOL    HW143519   6.505   7.212   3.396  0.8678  1.2594  1.4877
14026SOL    HW243520   6.639   7.233   3.327  0.5998 -0.8748  0.2371
14027SOL     OW43521   5.093   4.634  10.920 -0.4017  0.9117  0.0312
14027SOL    HW143522   5.123   4.697  10.986  1.0124  0.1611  0.1245
14027SOL    HW243523   5.172   4.606  10.875 -0.9687 -0.9530  0.1146
14028SOL     OW43524   0.222   0.108   2.858 -0.2898 -1.0058 -0.6736
14028SOL    HW143525   0.186   0.196   2.869 -0.0912 -0.8395 -1.2903
14028SOL    HW243526   0.149   0.057   2.823 -0.4558 -1.1327 -0.1469
14029SOL     OW43527   6.256   4.563   9.993  0.0591 -0.1987 -0.8979
14029SOL    HW143528   6.163   4.573  10.012  0.4084  2.4828 -0.1702
14029SOL    HW243529   6.282   4.648   9.956  2.8459  0.3038  1.8301
14030SOL     OW43530   7.722   1.910   3.000 -0.2671  0.0958  0.5115
14030SOL    HW143531   7.727   1.965   2.922 -1.5276 -0.4966 -0.0292
14030SOL    HW243532   7.679   1.965   3.065 -3.6235 -0.8259 -0.7080
14031SOL     OW43533   0.036   4.497   9.350 -0.2723 -0.5306 -0.3911
14031SOL    HW143534   0.103   4.456   9.404  1.6229  2.1642 -0.4673
14031SOL    HW243535   0.048   4.459   9.263 -0.0672 -1.3624 -0.0107
14032SOL     OW43536   7.821   3.876   2.231  0.5694  0.3975  0.2032
14032SOL    HW143537   7.817   3.971   2.218  0.3688  0.1464 -1.8619
14032SOL    HW243538   7.797   3.863   2.323  0.0462  2.2980  0.3679
14033SOL     OW43539   2.546   2.266   7.453 -0.7874  0.0063  0.4919
14033SOL    HW143540   2.543   2.185   7.503 -0.0150 -0.2878  0.0840
14033SOL    HW243541   2.576   2.332   7.515  0.5973 -0.4406  0.3472
14034SOL     OW43542   4.553   0.630  12.076 -0.7354 -0.4453  0.4863
14034SOL    HW143543   4.600   0.638  12.159  2.1106 -0.9535 -0.9469
14034SOL    HW243544   4.491   0.702  12.077  0.2485  0.4640  2.4096
14035SOL     OW43545   4.438   2.890   4.868 -0.2761  0.2103 -0.3678
14035SOL    HW143546   4.402   2.976   4.889 -1.2741 -0.2657 -0.0523
14035SOL    HW243547   4.365   2.830   4.883  0.4007 -0.6859 -0.6106
14036SOL     OW43548   1.410   2.415   7.103 -0.0669 -0.1380 -0.2348
14036SOL    HW143549   1.470   2.485   7.127 -0.0651 -0.2319  0.0375
14036SOL    HW243550   1.398   2.425   7.008  1.5200 -1.0244 -0.5591
14037SOL     OW43551   1.120   5.483   8.466  0.1594  0.0063  0.1465
14037SOL    HW143552   1.204   5.513   8.433  0.0017 -1.3444 -1.6386
14037SOL    HW243553   1.130   5.389   8.476 -0.8657 -0.0503  0.8058
14038SOL     OW43554   4.550   5.681   9.224 -0.4418 -0.2982 -0.0883
14038SOL    HW143555   4.631   5.654   9.180 -1.1995  1.1407 -2.5384
14038SOL    HW243556   4.569   5.768   9.258  0.4699 -1.7356  3.6678
14039SOL     OW43557   3.214   4.385   1.737  0.2052 -0.3143  0.0102
14039SOL    HW143558   3.208   4.300   1.782 -0.0560 -0.0089  0.5633
14039SOL    HW243559   3.191   4.366   1.647  2.5761 -1.3003 -0.4556
14040SOL     OW43560   1.053   5.484   4.476  0.5765 -0.3612 -0.7502
14040SOL    HW143561   1.026   5.393   4.462 -2.6940  0.3078  0.3250
14040SOL    HW243562   1.011   5.532   4.404 -0.8698  0.6826  0.7082
14041SOL     OW43563   6.743   3.140   7.869  0.4940  0.4852 -0.6082
14041SOL    HW143564   6.721   3.165   7.779  0.2006  1.6131 -0.2438
14041SOL    HW243565   6.697   3.057   7.883  1.1108 -0.0623 -1.7187
14042SOL     OW43566   1.412   3.767   7.495  0.1244  0.0780 -0.0752
14042SOL    HW143567   1.470   3.705   7.451  0.2128 -0.3640  0.6510
14042SOL    HW243568   1.327   3.723   7.498 -0.8653  1.4899 -2.9138
14043SOL     OW43569   7.898   0.822   6.233  0.2062 -0.5578  0.4365
14043SOL    HW143570   7.933   0.857   6.151 -0.4800 -0.1226  0.3221
14043SOL    HW243571   7.972   0.777   6.273  0.4839 -1.0153 -0.5507
14044SOL     OW43572   3.842   4.558   4.175 -0.8776  0.5892  0.5534
14044SOL    HW143573   3.923   4.556   4.227 -0.7620 -2.3751  0.4577
14044SOL    HW243574   3.774   4.532   4.237 -0.7506 -2.9161 -0.5374
14045SOL     OW43575   5.871   5.829   2.914  0.2211 -0.0873  0.1256
14045SOL    HW143576   5.818   5.832   2.835 -0.9641  1.9608  0.9242
14045SOL    HW243577   5.913   5.915   2.918  1.9945 -0.9221  0.6271
14046SOL     OW43578   4.892   3.357   5.662 -0.0520 -0.3170 -0.0481
14046SOL    HW143579   4.977   3.316   5.680  0.4652 -0.1684 -1.9642
14046SOL    HW243580   4.909   3.451   5.671  0.4794 -0.1680 -2.0748
14047SOL     OW43581   6.914   2.476   6.103 -0.1049  0.0086  0.1110
14047SOL    HW143582   6.895   2.417   6.031 -0.0349 -0.0490  0.1401
14047SOL    HW243583   6.917   2.420   6.181 -1.0285  0.1867  0.2858
14048SOL     OW43584   7.521   0.448  11.103  0.0681  0.3766  0.2727
14048SOL    HW143585   7.525   0.543  11.092 -0.4775  0.1972 -2.1094
14048SOL    HW243586   7.556   0.413  11.020  0.3936 -1.5044  1.1478
14049SOL     OW43587   5.189   2.605  10.630  0.1470  0.0854  0.2755
14049SOL    HW143588   5.149   2.692  10.623 -1.1963 -0.4532  0.8066
14049SOL    HW243589   5.204   2.579  10.539 -1.2110  0.1216  0.0115
14050SOL     OW43590   4.463   5.762   9.524  0.5599  0.2148 -0.3774
14050SOL    HW143591   4.434   5.707   9.597  0.9753 -1.8020 -1.6697
14050SOL    HW243592   4.423   5.722   9.446  2.2310  0.7313 -1.5446
14051SOL     OW43593   0.682   2.069   8.503 -0.3831 -0.0831  0.5976
14051SOL    HW143594   0.674   1.975   8.484 -1.3792 -0.4444  2.5501
14051SOL    HW243595   0.676   2.111   8.417 -0.9052 -1.7454 -0.2291
14052SOL     OW43596   5.251   3.223  11.443  0.1538  0.0750  0.1657
14052SOL    HW143597   5.173   3.240  11.389 -0.2833  3.0811  1.5359
14052SOL    HW243598   5.223   3.157  11.506 -0.3977 -0.8798 -1.0393
14053SOL     OW43599   0.010   4.958   2.640 -0.1641  0.8072 -0.6532
14053SOL    HW143600  -0.064   5.017   2.658 -2.3719 -1.7471 -0.7212
14053SOL    HW243601   0.003   4.890   2.707  1.1379 -0.4016 -1.6904
14054SOL     OW43602   0.030   7.312   7.990  0.2836  0.2737 -0.8572
14054SOL    HW143603  -0.052   7.287   7.948 -1.5118 -0.2141  2.5924
14054SOL    HW243604   0.051   7.238   8.047  1.9627  1.3038 -0.0641
14055SOL     OW43605   4.500   7.652   4.039 -0.4246 -0.1529 -0.2712
14055SOL    HW143606   4.581   7.657   3.989  0.9081 -0.9210  1.6666
14055SOL    HW243607   4.513   7.714   4.111 -1.7149 -0.0501 -0.0993
14056SOL     OW43608   2.232   5.491   2.088  0.3486 -0.2607  0.2388
14056SOL    HW143609   2.208   5.399   2.101  0.3346 -0.1623  0.9105
14056SOL    HW243610   2.205   5.535   2.168  1.7018  0.0646  0.5366
14057SOL     OW43611   2.879   3.658   5.387 -0.2586 -0.6060  0.5371
14057SOL    HW143612   2.873   3.646   5.482 -0.9414 -0.4830  0.5100
14057SOL    HW243613   2.818   3.595   5.350  0.9416 -1.5645  0.1011
14058SOL     OW43614   4.802   2.675   2.514 -0.2012  0.5419 -0.2916
14058SOL    HW143615   4.811   2.588   2.552 -1.1509  0.1595 -0.9097
14058SOL    HW243616   4.787   2.659   2.421 -1.5658  1.3008 -0.2319
14059SOL     OW43617   6.952   1.361   6.562  0.0136 -0.5809 -0.3615
14059SOL    HW143618   6.936   1.269   6.583  1.1347 -0.4863  1.0767
14059SOL    HW243619   6.963   1.403   6.647 -0.4081  0.8818 -1.0052
14060SOL     OW43620   2.029   1.891   4.651  0.2118  0.2854 -0.2324
14060SOL    HW143621   1.991   1.837   4.720  1.7893 -2.4404 -1.3527
14060SOL    HW243622   1.980   1.973   4.655 -0.2998 -0.0332  3.5549
14061SOL     OW43623   6.874   1.607   6.868  0.4325  0.2762 -0.0589
14061SOL    HW143624   6.840   1.642   6.950  0.5403 -0.5212  0.3341
14061SOL    HW243625   6.850   1.515   6.869  2.5994 -0.3381  0.2513
14062SOL     OW43626   5.269   5.174  11.160 -0.3186 -0.4696  0.0545
14062SOL    HW143627   5.230   5.256  11.131 -1.6569 -0.5177  1.5738
14062SOL    HW243628   5.213   5.105  11.124 -3.2097 -0.5074  3.9569
14063SOL     OW43629   3.166   2.439   8.959 -0.0512  0.8304  0.0982
14063SOL    HW143630   3.126   2.454   8.873  0.6744 -0.4879 -0.4906
14063SOL    HW243631   3.260   2.440   8.942  0.1201 -2.2731  0.3002
14064SOL     OW43632   1.631   0.729   5.268 -0.1295 -0.5670 -0.5839
14064SOL    HW143633   1.597   0.641   5.249 -0.5952 -0.8024  1.1758
14064SOL    HW243634   1.573   0.788   5.221 -1.3236 -1.1147  0.1596
14065SOL     OW43635   1.729   3.148   3.084  0.3272 -0.4299 -0.4669
14065SOL    HW143636   1.635   3.150   3.099  0.3399 -1.1298 -0.2495
14065SOL    HW243637   1.745   3.216   3.018 -0.2898 -0.1454 -0.3288
14066SOL     OW43638   1.846   6.435   7.500  0.3109 -0.3837  0.3764
14066SOL    HW143639   1.920   6.384   7.534  0.2612 -0.3463  0.5429
14066SOL    HW243640   1.857   6.522   7.540  2.0645  0.6914 -2.1556
14067SOL     OW43641   4.024   0.659   1.969 -0.3683 -0.0143 -0.3406
14067SOL    HW143642   3.957   0.624   2.027 -1.1384  3.4460  1.0989
14067SOL    HW243643   4.104   0.657   2.021 -0.0378 -1.0547 -0.8578
14068SOL     OW43644   1.700   7.866   3.378 -0.0833 -0.2950 -0.1147
14068SOL    HW143645   1.771   7.802   3.387  0.1476 -0.0802 -0.4158
14068SOL    HW243646   1.631   7.832   3.435  0.7609  0.1940  1.2574
14069SOL     OW43647   5.993   2.850   4.273  0.0359  0.3833 -0.2386
14069SOL    HW143648   6.040   2.767   4.276  0.7418  0.7513 -0.7418
14069SOL    HW243649   6.046   2.910   4.326 -0.1341  0.6764 -0.3936
14070SOL     OW43650   7.641   2.542   8.638 -0.7606 -0.0443 -0.1658
14070SOL    HW143651   7.616   2.619   8.586  2.6585  1.2764 -0.1285
14070SOL    HW243652   7.680   2.579   8.717 -2.6888 -1.9822  1.8153
14071SOL     OW43653   4.862   0.646  12.165  0.6749 -0.1044  0.1324
14071SOL    HW143654   4.946   0.657  12.210 -0.1525  0.6004  1.5698
14071SOL    HW243655   4.799   0.628  12.235 -0.7230  1.3042 -0.7029
14072SOL     OW43656   0.287   7.027   7.910  0.0007  0.3067  0.1437
14072SOL    HW143657   0.325   6.944   7.939  0.1140  0.2993 -0.0240
14072SOL    HW243658   0.327   7.044   7.825 -0.3990  0.2814 -0.0545
14073SOL     OW43659   7.695   7.241  11.454 -0.1065 -0.1713 -0.2022
14073SOL    HW143660   7.640   7.303  11.502 -1.5530 -0.5599 -1.2846
14073SOL    HW243661   7.661   7.242  11.365  1.0962 -1.0917 -0.7094
14074SOL     OW43662   0.110   1.333  11.575 -0.1871  0.3241  0.2769
14074SOL    HW143663   0.169   1.394  11.620 -1.0701  0.7028  0.9428
14074SOL    HW243664   0.023   1.353  11.610 -0.8182  0.1952 -1.1353
14075SOL     OW43665   3.715   4.945  10.775  0.2005 -0.0813 -0.1604
14075SOL    HW143666   3.654   4.932  10.702  0.1760 -0.1045 -0.1350
14075SOL    HW243667   3.668   4.913  10.852  0.7795 -1.4167 -0.3466
14076SOL     OW43668   5.730   7.198   3.190 -0.1976  0.6263 -0.0309
14076SOL    HW143669   5.803   7.219   3.131 -0.3947  0.9935 -0.1479
14076SOL    HW243670   5.683   7.281   3.200 -0.8244  0.3036 -0.2693
14077SOL     OW43671   6.253   1.268   9.549 -0.4920  0.5986 -0.1639
14077SOL    HW143672   6.178   1.321   9.575 -2.2177 -0.7530 -2.0978
14077SOL    HW243673   6.237   1.182   9.590  0.8927  0.7348  0.7458
14078SOL     OW43674   7.545   6.872   7.556 -0.1181  0.0849  0.0502
14078SOL    HW143675   7.506   6.925   7.626  1.3410 -1.7085  2.3708
14078SOL    HW243676   7.471   6.826   7.517 -0.7109 -1.7144  3.0016
14079SOL     OW43677   6.904   6.957   0.483  0.1229 -0.0866  0.1343
14079SOL    HW143678   6.886   6.863   0.474 -1.1446  0.0154  1.2406
14079SOL    HW243679   6.840   6.999   0.426  0.2943  0.1318  0.1033
14080SOL     OW43680   4.915   6.534   2.037 -0.2723 -0.3855  0.5611
14080SOL    HW143681   4.827   6.539   2.075 -0.3162  2.6264  0.3435
14080SOL    HW243682   4.905   6.477   1.961 -2.4851  1.1244 -0.3889
14081SOL     OW43683   1.786   7.058   4.117  0.7326  0.5101 -0.1391
14081SOL    HW143684   1.808   7.105   4.036 -0.3305  0.7667 -0.3026
14081SOL    HW243685   1.870   7.041   4.159  1.5525 -1.4903 -2.3165
14082SOL     OW43686   6.968   7.442   3.932  0.3581  0.4070  0.2834
14082SOL    HW143687   7.034   7.435   4.000 -0.9408  0.8018  1.6531
14082SOL    HW243688   6.979   7.531   3.898  0.8973  0.2712  0.0952
14083SOL     OW43689   0.954   2.810   5.595  0.0232  0.0169 -0.3944
14083SOL    HW143690   0.892   2.747   5.631 -1.2088  1.3834 -0.0714
14083SOL    HW243691   0.951   2.885   5.654  1.4160  0.4322 -0.8068
14084SOL     OW43692   2.381   6.313   1.585  0.4269 -0.3109  0.2814
14084SOL    HW143693   2.355   6.398   1.621  0.6820 -0.3084  0.4616
14084SOL    HW243694   2.323   6.300   1.510  0.1873 -0.1146  0.4335
14085SOL     OW43695   4.552   3.881   3.264  0.1334 -0.0759 -0.0642
14085SOL    HW143696   4.509   3.838   3.338  0.4778  0.7121  0.5998
14085SOL    HW243697   4.581   3.809   3.208  1.3291 -0.7566  1.3749
14086SOL     OW43698   2.918   1.097   1.577 -0.0259  0.3811  0.2606
14086SOL    HW143699   2.858   1.168   1.553  0.3645  0.6868  0.1931
14086SOL    HW243700   3.000   1.118   1.532  0.4703  0.5354  1.2095
14087SOL     OW43701   2.308   4.477   3.680  0.4107 -0.3731  0.3621
14087SOL    HW143702   2.387   4.503   3.632  1.2630 -3.3606 -0.0669
14087SOL    HW243703   2.341   4.417   3.748 -1.3817 -0.7774  0.9179
14088SOL     OW43704   7.925   5.166   8.224 -0.1227 -0.1592 -0.4817
14088SOL    HW143705   7.839   5.207   8.222  0.7243  1.7493  0.5122
14088SOL    HW243706   7.977   5.216   8.161  1.0931  0.7543  1.1849
14089SOL     OW43707   7.580   1.229   1.282 -0.1310  0.1122  0.2323
14089SOL    HW143708   7.641   1.237   1.355  0.4653  0.8150 -0.3355
14089SOL    HW243709   7.630   1.257   1.206 -0.2043 -2.1951 -0.7374
14090SOL     OW43710   6.078   5.600  11.052 -0.3942  0.1418 -0.2257
14090SOL    HW143711   6.020   5.671  11.081  0.6681  0.6439  0.7554
14090SOL    HW243712   6.020   5.540  11.005 -1.6072  0.8906  0.2537
14091SOL     OW43713   6.011   3.601   9.900  0.5785 -0.3547 -0.2036
14091SOL    HW143714   6.094   3.594   9.948  0.1158  0.7330  0.8036
14091SOL    HW243715   6.033   3.653   9.823  0.4529  1.7291  1.1034
14092SOL     OW43716   0.577   2.746   7.627 -0.1542  0.1782 -0.1580
14092SOL    HW143717   0.535   2.729   7.711 -1.3028  0.5834 -0.6353
14092SOL    HW243718   0.658   2.792   7.650 -0.4995  0.3564  0.7274
14093SOL     OW43719   0.068   4.117   6.075 -0.2196  0.0452 -0.3338
14093SOL    HW143720   0.128   4.060   6.124 -2.7386 -1.5891  1.0972
14093SOL    HW243721   0.069   4.082   5.986 -0.6305 -1.3790  0.1872
14094SOL     OW43722   3.119   2.226  12.402 -0.0888 -0.1361  0.1013
14094SOL    HW143723   3.071   2.191  12.327  0.3367 -1.0425  0.2349
14094SOL    HW243724   3.207   2.242  12.369 -0.4237  1.3858 -0.1052
14095SOL     OW43725   2.683   2.884   7.653 -0.1977  0.1050  0.3345
14095SOL    HW143726   2.628   2.934   7.593 -0.5362 -1.0559 -0.3422
14095SOL    HW243727   2.622   2.827   7.700  0.3587 -0.7904 -0.0143
14096SOL     OW43728   5.485   0.093   8.915 -0.2715  0.2026 -0.4642
14096SOL    HW143729   5.515   0.179   8.943  2.2893 -0.6073 -0.4522
14096SOL    HW243730   5.398   0.083   8.954  0.2658  1.9090  1.2842
14097SOL     OW43731   1.465   1.047   7.004 -0.3900  0.6281  0.2948
14097SOL    HW143732   1.556   1.030   7.027 -0.4733  0.0313  0.1999
14097SOL    HW243733   1.468   1.072   6.911  0.1513  4.6960  1.1982
14098SOL     OW43734   7.724   3.263   4.819 -0.2768  0.0660 -0.3265
14098SOL    HW143735   7.789   3.224   4.760 -0.0412 -0.4386  0.2634
14098SOL    HW243736   7.751   3.355   4.827  1.1698 -0.4314  0.9715
14099SOL     OW43737   3.882   7.156  11.405 -0.2712  0.5962 -0.3723
14099SOL    HW143738   3.947   7.159  11.475 -0.9190 -0.2441  0.2852
14099SOL    HW243739   3.933   7.157  11.324  0.6221 -1.1613  0.1324
14100SOL     OW43740   1.924   6.837  12.095 -0.4843  0.0153 -0.6872
14100SOL    HW143741   1.992   6.772  12.112 -0.7187  0.1596  0.8784
14100SOL    HW243742   1.842   6.794  12.118 -0.7357  0.5284 -0.6061
14101SOL     OW43743   6.772   5.128   8.161 -0.3750 -0.4517  0.0813
14101SOL    HW143744   6.732   5.152   8.244 -1.6531  0.0595 -0.6520
14101SOL    HW243745   6.866   5.140   8.174 -0.6441  0.6247  1.1176
14102SOL     OW43746   0.394   0.708   9.491  0.0471  0.5232  0.2122
14102SOL    HW143747   0.318   0.655   9.513 -2.1018  2.0422 -2.8666
14102SOL    HW243748   0.464   0.674   9.547 -2.6624 -1.4090  2.7061
14103SOL     OW43749   7.484   5.276   4.541  0.1782  0.1533 -0.0263
14103SOL    HW143750   7.505   5.232   4.624 -1.4633  0.5773  0.6482
14103SOL    HW243751   7.401   5.320   4.558 -1.0076 -1.0019 -2.3662
14104SOL     OW43752   7.079   2.087   3.966 -0.7193  1.0230 -0.2537
14104SOL    HW143753   7.162   2.109   3.924 -0.3887 -0.5526 -0.4817
14104SOL    HW243754   7.031   2.038   3.900 -1.7341  1.6677 -0.0239
14105SOL     OW43755   1.785   4.815   0.261 -0.2536 -0.0348 -0.1224
14105SOL    HW143756   1.803   4.756   0.335 -0.4394  1.5245  1.2113
14105SOL    HW243757   1.857   4.799   0.200  0.0523 -1.1612  0.5121
14106SOL     OW43758   5.492   1.396   9.031  0.0278  0.1096  0.2001
14106SOL    HW143759   5.496   1.437   9.117  1.0367  1.7650 -0.6023
14106SOL    HW243760   5.565   1.334   9.031 -0.3945 -0.4150  0.7445
14107SOL     OW43761   5.260   3.504   9.457  0.5512 -0.3695  0.0160
14107SOL    HW143762   5.348   3.510   9.420  0.2384 -0.5484 -0.7658
14107SOL    HW243763   5.264   3.557   9.536  0.7649  1.4477 -1.1609
14108SOL     OW43764   2.955   4.314  11.852 -0.8773 -0.6997 -0.2166
14108SOL    HW143765   3.032   4.307  11.795 -1.1448  0.2849 -0.7079
14108SOL    HW243766   2.964   4.240  11.912  0.1839 -0.9004 -0.5950
14109SOL     OW43767   1.361   3.373   8.079  0.3853  0.1298 -0.1966
14109SOL    HW143768   1.439   3.416   8.044  0.5771  0.8557  1.0879
14109SOL    HW243769   1.389   3.282   8.095  0.0574 -0.4797 -2.6375
14110SOL     OW43770   0.324   3.006   5.832  0.0992  0.5719 -0.3545
14110SOL    HW143771   0.286   3.071   5.892  1.0352  0.3458  0.5031
14110SOL    HW243772   0.375   2.948   5.888 -1.8287 -1.7988 -0.8949
14111SOL     OW43773   1.655   4.962   0.617  0.4406 -0.3474 -0.0521
14111SOL    HW143774   1.668   4.869   0.639 -1.0375 -0.9136 -1.4214
14111SOL    HW243775   1.566   4.981   0.647  0.0505  0.0907 -1.4497
14112SOL     OW43776   1.533   0.497   5.142  0.0917  0.4701  0.1204
14112SOL    HW143777   1.536   0.484   5.047  0.8118  0.5957  0.1192
14112SOL    HW243778   1.531   0.409   5.178 -0.7223  0.4245 -0.0187
14113SOL     OW43779   0.951   5.384  11.097  0.4811  0.2976 -0.1981
14113SOL    HW143780   0.950   5.422  11.009  0.6083 -2.0733 -1.2905
14113SOL    HW243781   0.909   5.298  11.087  1.4729 -0.4922  1.8411
14114SOL     OW43782   3.973   4.855   7.849 -0.5244  0.6362  0.0395
14114SOL    HW143783   4.025   4.783   7.814 -1.6859 -0.2654  0.1240
14114SOL    HW243784   4.032   4.899   7.911  0.0651 -0.4805  0.2990
14115SOL     OW43785   2.285   2.655   8.170 -0.3062  0.4178 -0.8605
14115SOL    HW143786   2.274   2.624   8.080  0.5878  0.9980 -1.1779
14115SOL    HW243787   2.285   2.576   8.223  1.7219 -0.1385 -1.6355
14116SOL     OW43788   0.910   5.488   2.258  0.0029  0.0621 -0.5589
14116SOL    HW143789   0.994   5.447   2.280  0.0249 -1.1989 -2.7163
14116SOL    HW243790   0.929   5.582   2.257  0.6605  0.0106  1.7121
14117SOL     OW43791   6.240   3.719   7.116  0.2327  0.1169  0.3694
14117SOL    HW143792   6.259   3.694   7.207  0.3440  1.6416  0.8054
14117SOL    HW243793   6.155   3.763   7.121  0.0849 -0.0873 -0.3253
14118SOL     OW43794   5.776   5.430  11.411  0.0427 -0.2031 -0.3754
14118SOL    HW143795   5.774   5.377  11.332  0.3094  0.4034 -0.7989
14118SOL    HW243796   5.708   5.496  11.398  1.1913  0.9361 -0.8590
14119SOL     OW43797   1.976   1.482   1.648  0.0824  0.6910  0.4176
14119SOL    HW143798   2.000   1.558   1.595 -1.4779  1.1162  0.2798
14119SOL    HW243799   1.882   1.474   1.637 -0.2019  0.3812  2.5926
14120SOL     OW43800   1.924   3.975   0.280 -0.4292  0.1581  0.2280
14120SOL    HW143801   1.946   3.882   0.270 -0.9395  0.0572  0.0357
14120SOL    HW243802   2.009   4.018   0.291 -0.3052 -0.5884  2.6625
14121SOL     OW43803   7.863   7.463   4.822  0.1801 -0.3195  0.3297
14121SOL    HW143804   7.814   7.491   4.745  1.0181 -1.0090 -0.4806
14121SOL    HW243805   7.930   7.404   4.787  0.2751 -1.0196  1.6460
14122SOL     OW43806   0.636   1.236  11.723 -0.2586 -0.5929  0.0727
14122SOL    HW143807   0.669   1.322  11.698 -0.1468 -0.0786  1.8136
14122SOL    HW243808   0.666   1.177  11.654 -0.3081  0.7502 -1.1356
14123SOL     OW43809   5.609   5.143  11.984 -0.0208  0.4474 -0.4483
14123SOL    HW143810   5.572   5.123  11.898 -0.5579  2.5933 -0.7716
14123SOL    HW243811   5.637   5.235  11.978 -0.3460  0.7555  1.7595
14124SOL     OW43812   6.638   4.601   5.368 -0.5893 -0.2051  0.2192
14124SOL    HW143813   6.718   4.552   5.387 -0.2318 -0.5128 -1.7958
14124SOL    HW243814   6.572   4.564   5.426  0.2136 -1.5019  0.3424
14125SOL     OW43815   1.886   2.044   7.168 -0.1947  0.1936 -0.3864
14125SOL    HW143816   1.938   2.103   7.222 -0.9612 -0.6447  1.3425
14125SOL    HW243817   1.914   1.957   7.194 -0.3966 -0.2401 -1.5637
14126SOL     OW43818   0.522   5.826   8.367 -0.2131  0.3403  0.7262
14126SOL    HW143819   0.465   5.880   8.422 -1.8421 -0.0684 -0.4578
14126SOL    HW243820   0.545   5.751   8.422 -0.8383  0.5145  1.2349
14127SOL     OW43821   1.353   1.049   3.188  0.1092  0.8039 -0.0791
14127SOL    HW143822   1.362   1.020   3.279 -0.0676  0.9207 -0.0251
14127SOL    HW243823   1.263   1.026   3.164  0.2357  0.5350 -0.3088
14128SOL     OW43824   4.260   3.250   1.357 -0.6713  0.2669  0.4207
14128SOL    HW143825   4.233   3.236   1.266  1.6262  0.8089 -0.4219
14128SOL    HW243826   4.185   3.221   1.409 -2.2457  0.3814 -1.6381
14129SOL     OW43827   5.807   6.155   9.711  0.3164 -0.5285  0.0257
14129SOL    HW143828   5.761   6.156   9.795  0.7728 -1.6967  0.3121
14129SOL    HW243829   5.739   6.134   9.647 -0.1502  0.9556 -0.0012
14130SOL     OW43830   6.663   1.290  11.969 -0.9658  0.2613  0.2577
14130SOL    HW143831   6.743   1.260  11.926 -0.6177 -3.0854  2.8574
14130SOL    HW243832   6.692   1.362  12.025 -0.3760  0.9498 -0.8979
14131SOL     OW43833   4.620   7.196  10.193 -0.4724 -0.1687  0.4462
14131SOL    HW143834   4.542   7.142  10.179 -2.3411  2.4670 -0.2123
14131SOL    HW243835   4.675   7.178  10.117 -1.0690 -1.0756  0.2102
14132SOL     OW43836   5.061   4.942   1.239  0.5816  0.0442  0.4016
14132SOL    HW143837   5.054   4.869   1.178 -0.0776  1.8266 -1.8217
14132SOL    HW243838   4.970   4.964   1.262  0.5802  1.6063 -0.8982
14133SOL     OW43839   5.583   5.614  11.373  0.5714 -0.0134 -0.0648
14133SOL    HW143840   5.635   5.651  11.301 -1.1860 -0.4156 -1.6251
14133SOL    HW243841   5.529   5.687  11.403  1.6255  0.2694  1.1884
14134SOL     OW43842   6.937   3.893   5.017 -0.4757  0.2829 -0.2543
14134SOL    HW143843   6.942   3.881   5.112 -0.2308  0.3852 -0.2514
14134SOL    HW243844   6.901   3.812   4.984 -0.0374  0.0288 -0.1216
14135SOL     OW43845   2.440   1.042  10.842 -0.2546  0.0570  0.1094
14135SOL    HW143846   2.425   1.048  10.937  1.4522 -1.7864  0.5661
14135SOL    HW243847   2.396   1.119  10.806 -1.9619  0.1875  2.2570
14136SOL     OW43848   7.800   1.010  10.999  0.2336  0.6080 -0.2115
14136SOL    HW143849   7.823   0.918  11.004 -1.6464  0.1097  0.2689
14136SOL    HW243850   7.803   1.031  10.906  2.0935  0.4872 -0.2050
14137SOL     OW43851   0.946   0.622  11.719  0.1515  0.3355  0.1901
14137SOL    HW143852   0.997   0.556  11.766  0.2981  0.7138  0.5694
14137SOL    HW243853   1.005   0.697  11.712  0.1508  0.2681 -0.6574
14138SOL     OW43854   3.622   0.591   7.173 -0.0673 -0.1678 -0.4338
14138SOL    HW143855   3.657   0.656   7.112 -0.1903 -0.0533 -0.3828
14138SOL    HW243856   3.536   0.567   7.136  0.2093 -0.6966 -0.7415
14139SOL     OW43857   6.089   0.969   5.212 -0.6271 -0.2258  0.3863
14139SOL    HW143858   6.103   0.973   5.307  1.7914 -0.7984  0.1143
14139SOL    HW243859   6.079   1.060   5.185  0.1323  0.0672  1.0283
14140SOL     OW43860   3.813   0.810   6.134 -0.3292 -0.3866 -0.4416
14140SOL    HW143861   3.826   0.767   6.219 -3.3105  0.1319  0.3843
14140SOL    HW243862   3.866   0.890   6.139 -0.4796 -0.3549  0.9447
14141SOL     OW43863   1.990   4.353   0.188  0.0216  0.2688 -0.1856
14141SOL    HW143864   2.056   4.420   0.204 -1.1220  0.9227  2.2931
14141SOL    HW243865   2.010   4.284   0.252 -0.4634 -0.4946 -0.8312
14142SOL     OW43866   7.374   5.289   9.642 -0.3064  0.6770  0.7360
14142SOL    HW143867   7.417   5.203   9.642  0.4699  1.0552  0.0673
14142SOL    HW243868   7.296   5.276   9.586 -0.3803  0.3224  0.9171
14143SOL     OW43869   7.365   3.472   5.438  0.0914 -0.7423 -0.4606
14143SOL    HW143870   7.449   3.426   5.435  0.8369  0.5676 -0.8869
14143SOL    HW243871   7.341   3.484   5.346  0.7105  1.0341 -0.4372
14144SOL     OW43872   7.881   5.899  12.153 -0.2066 -0.0148 -0.1835
14144SOL    HW143873   7.881   5.856  12.238  0.9489 -0.1055 -0.2093
14144SOL    HW243874   7.909   5.989  12.172 -0.0817  0.0035 -0.4520
14145SOL     OW43875   6.725   6.438   2.758  0.2658  0.3308  0.1959
14145SOL    HW143876   6.758   6.512   2.707  2.3145 -0.9231 -0.3698
14145SOL    HW243877   6.772   6.443   2.841 -0.9259  0.6697  0.8837
14146SOL     OW43878   1.776   1.095   2.006  0.2845  0.1375  0.2473
14146SOL    HW143879   1.717   1.059   2.073 -0.4274  0.7443 -0.0319
14146SOL    HW243880   1.864   1.073   2.037  0.0436  1.3373  1.9765
14147SOL     OW43881   0.565   0.665   2.862 -0.5736 -0.1787 -0.3281
14147SOL    HW143882   0.541   0.578   2.892 -0.5054 -0.2640 -0.5203
14147SOL    HW243883   0.507   0.724   2.910  0.7066 -0.1730  1.3089
14148SOL     OW43884   5.661   0.593   6.285 -0.5456  0.2426  0.2373
14148SOL    HW143885   5.736   0.649   6.306 -1.9184  1.6616  1.5768
14148SOL    HW243886   5.603   0.648   6.233 -0.0990 -1.2824 -2.0299
14149SOL     OW43887   1.477   0.229   2.462  0.2736 -0.1039 -0.4226
14149SOL    HW143888   1.535   0.269   2.397  1.4840 -0.4322  0.4117
14149SOL    HW243889   1.480   0.289   2.537  1.1525 -1.1246  0.3834
14150SOL     OW43890   4.615   3.077   0.203 -0.2828  0.4367  0.2032
14150SOL    HW143891   4.555   3.067   0.278  0.4225 -1.1200  0.6096
14150SOL    HW243892   4.662   3.158   0.221 -0.2228  0.1581  1.3946
14151SOL     OW43893   7.339   5.731  10.090  0.1750  0.0908  0.5769
14151SOL    HW143894   7.425   5.696  10.112  0.7455  0.5298 -0.8471
14151SOL    HW243895   7.319   5.793  10.160  1.9635  1.5430 -0.1198
14152SOL     OW43896   0.353   7.013  12.286 -0.2120 -0.0775 -0.2551
14152SOL    HW143897   0.336   7.021  12.379 -2.6196  0.3148 -0.6718
14152SOL    HW243898   0.328   6.923  12.264 -0.9492  0.2321 -0.7301
14153SOL     OW43899   0.697   6.683   2.899  0.3266 -0.3307 -0.1060
14153SOL    HW143900   0.641   6.613   2.866  0.2889 -0.2994 -0.1091
14153SOL    HW243901   0.717   6.657   2.989 -0.6457  0.2329  0.2851
14154SOL     OW43902   4.870   1.378   2.077 -0.4019 -0.0575 -0.2362
14154SOL    HW143903   4.801   1.328   2.033 -0.3109 -1.8678  1.5074
14154SOL    HW243904   4.947   1.321   2.071  0.6392  1.3558 -0.9979
14155SOL     OW43905   1.054   4.668   4.316  0.5661  0.2142  0.1024
14155SOL    HW143906   0.999   4.733   4.360  0.6992  0.4076 -0.0165
14155SOL    HW243907   1.091   4.616   4.387  0.7646  0.5128  0.2207
14156SOL     OW43908   3.715   5.738  12.362 -0.0297 -0.3246  0.0392
14156SOL    HW143909   3.716   5.795  12.285 -2.2590 -0.5132 -0.1957
14156SOL    HW243910   3.805   5.741  12.395  1.7029 -2.0607 -3.8652
14157SOL     OW43911   2.964   1.803   4.351 -0.3537  0.1164 -0.2395
14157SOL    HW143912   2.884   1.853   4.335  0.1613  0.2696 -2.7462
14157SOL    HW243913   2.969   1.741   4.278  1.2355 -0.6724  0.4791
14158SOL     OW43914   4.355   3.305   3.599 -0.0591 -0.3904 -0.2031
14158SOL    HW143915   4.323   3.365   3.667 -0.6626  1.3385 -1.9288
14158SOL    HW243916   4.285   3.241   3.588 -0.6247  0.2163 -0.2228
14159SOL     OW43917   3.853   7.083   7.257 -0.1645 -0.4350  0.1094
14159SOL    HW143918   3.884   7.098   7.346  1.7406  0.6953 -0.6921
14159SOL    HW243919   3.928   7.045   7.211 -0.6476  0.2495 -1.3237
14160SOL     OW43920   3.648   0.151   6.752 -0.3711 -0.1780  0.2646
14160SOL    HW143921   3.633   0.167   6.845  0.2955  0.3497  0.2887
14160SOL    HW243922   3.576   0.195   6.708  0.1955  0.9703  0.4543
14161SOL     OW43923   7.862   6.886   5.559 -0.0615 -0.0814 -0.0375
14161SOL    HW143924   7.883   6.979   5.545 -0.7976  0.1623  0.3983
14161SOL    HW243925   7.838   6.881   5.652 -0.4889 -0.6134 -0.1718
14162SOL     OW43926   1.669   5.666  11.113 -0.6139  0.0345  0.2938
14162SOL    HW143927   1.611   5.590  11.124  0.4501 -0.8121  0.2534
14162SOL    HW243928   1.648   5.699  11.026 -0.2326 -0.9782 -0.1995
14163SOL     OW43929   0.221   4.013   8.352 -0.4250 -0.1800 -0.1235
14163SOL    HW143930   0.218   4.102   8.317 -0.2249  0.4048  1.2739
14163SOL    HW243931   0.282   3.967   8.294 -0.1997  0.7061 -0.6134
14164SOL     OW43932   4.455   1.451   0.973  0.0557  0.4492 -0.4428
14164SOL    HW143933   4.368   1.433   1.008 -0.3304  1.2587 -0.9651
14164SOL    HW243934   4.444   1.530   0.920  1.2539  0.9958  0.0780
14165SOL     OW43935   3.722   2.034   8.338 -0.2767  0.0557 -0.5765
14165SOL    HW143936   3.644   2.065   8.292 -0.0028 -1.5463 -2.2578
14165SOL    HW243937   3.771   1.985   8.272  0.4269 -1.9345  1.3028
14166SOL     OW43938   2.277   4.386  11.483 -0.1774  0.2593 -0.3931
14166SOL    HW143939   2.361   4.414  11.447  1.1800 -0.1684  2.1961
14166SOL    HW243940   2.300   4.328  11.556 -2.5960  1.9848  1.9362
14167SOL     OW43941   4.263   2.060   6.473 -0.4473  0.1385 -0.1453
14167SOL    HW143942   4.257   1.983   6.417 -0.2791 -1.0096  1.3637
14167SOL    HW243943   4.173   2.082   6.494 -0.4602 -0.5295  0.5531
14168SOL     OW43944   2.232   3.806   2.542  0.5188  0.2797 -0.4440
14168SOL    HW143945   2.218   3.865   2.616 -0.8245 -0.0878 -0.3895
14168SOL    HW243946   2.207   3.720   2.573  2.7257 -0.4366 -0.4451
14169SOL     OW43947   6.153   3.981   6.260 -0.1780 -0.6211  0.0928
14169SOL    HW143948   6.058   3.970   6.271 -0.2073 -0.8326 -0.3311
14169SOL    HW243949   6.178   3.911   6.199 -0.1635  0.8679 -1.7140
14170SOL     OW43950   4.169   2.258   4.537 -0.3319 -0.0197  0.3716
14170SOL    HW143951   4.154   2.353   4.537 -1.4804 -0.1798 -0.3526
14170SOL    HW243952   4.239   2.245   4.472  0.8563  0.4425  1.5055
14171SOL     OW43953   5.878   5.353   2.119 -0.0736  0.7499 -0.0656
14171SOL    HW143954   5.820   5.302   2.063 -0.5679  0.2141  0.9068
14171SOL    HW243955   5.818   5.406   2.172  0.3930  1.4078 -0.1875
14172SOL     OW43956   0.747   4.186   5.971  0.1903  0.6159 -0.5676
14172SOL    HW143957   0.804   4.121   6.011 -0.0239  0.5739 -0.3315
14172SOL    HW243958   0.764   4.267   6.019 -0.7038  0.3653  0.2003
14173SOL     OW43959   1.344   0.172   9.067 -0.2865  0.3007  0.0927
14173SOL    HW143960   1.263   0.139   9.105 -0.1311  1.6461  1.7373
14173SOL    HW243961   1.317   0.249   9.016 -0.1449  0.3089  0.0300
14174SOL     OW43962   5.957   6.579  11.850  0.0674  0.0380  0.2334
14174SOL    HW143963   5.960   6.545  11.939  1.1881 -1.2925 -0.2709
14174SOL    HW243964   5.907   6.514  11.801 -0.5641  0.7708 -0.1119
14175SOL     OW43965   2.983   0.131   1.019  0.3761 -0.1748  0.2911
14175SOL    HW143966   2.990   0.098   1.108  0.0821  0.5498  0.5942
14175SOL    HW243967   3.072   0.150   0.992  0.7760 -2.7954 -0.5390
14176SOL     OW43968   4.302   3.360   4.016  0.7278 -0.4447  0.3184
14176SOL    HW143969   4.382   3.409   3.998  0.4519  0.3527  1.2383
14176SOL    HW243970   4.234   3.405   3.965  0.8516 -1.1346 -0.4811
14177SOL     OW43971   6.820   6.479   2.381 -0.2668  0.3807 -0.2378
14177SOL    HW143972   6.821   6.482   2.476  1.3070  0.2205 -0.2347
14177SOL    HW243973   6.787   6.391   2.360 -1.5712  0.7614  0.1210
14178SOL     OW43974   1.756   0.110   6.432 -0.1318  0.0108 -0.1020
14178SOL    HW143975   1.792   0.198   6.418  0.2989  0.5085  3.2836
14178SOL    HW243976   1.661   0.123   6.426 -0.0479  0.4909 -0.5369
14179SOL     OW43977   0.133   1.983   7.133 -0.4181  0.0941  0.5017
14179SOL    HW143978   0.084   2.054   7.092  0.5616  0.3913 -0.1800
14179SOL    HW243979   0.198   1.957   7.068 -0.1180 -0.7702  1.1194
14180SOL     OW43980   6.306   0.960   2.666 -0.2481 -0.6230 -0.1573
14180SOL    HW143981   6.401   0.967   2.680  0.2360 -1.2750 -2.6276
14180SOL    HW243982   6.288   1.019   2.593 -1.9262  0.1366  0.8327
14181SOL     OW43983   7.918   4.567  10.753 -0.5231 -0.6235 -0.1311
14181SOL    HW143984   7.891   4.656  10.729 -1.3948  0.3088  3.6299
14181SOL    HW243985   8.013   4.568  10.747 -0.4092  1.0794  1.0663
14182SOL     OW43986   1.251   6.224   5.962  0.2645 -0.1903  0.3850
14182SOL    HW143987   1.156   6.226   5.958  0.2902  0.9733  0.1418
14182SOL    HW243988   1.271   6.228   6.056  0.0834  0.0759  0.4122
14183SOL     OW43989   6.927   1.861   2.849 -0.1883 -0.2027 -0.1891
14183SOL    HW143990   7.013   1.845   2.811 -0.4203 -1.3192 -0.2951
14183SOL    HW243991   6.896   1.774   2.875 -0.2111  0.4566  2.1996
14184SOL     OW43992   3.651   6.310   5.609 -0.6032 -0.0813  0.1888
14184SOL    HW143993   3.705   6.232   5.610  0.3258  0.5473  0.0468
14184SOL    HW243994   3.643   6.335   5.702  1.2061  1.0498  0.0922
14185SOL     OW43995   0.734   1.759   3.360 -0.4740 -0.3882  0.0100
14185SOL    HW143996   0.688   1.783   3.280 -1.4034 -1.4682  0.2004
14185SOL    HW243997   0.779   1.677   3.339  2.3596  1.1567 -0.5210
14186SOL     OW43998   7.845   4.975   9.158  0.0354 -0.6485  0.0942
14186SOL    HW143999   7.800   4.984   9.073 -2.0949  2.2339  1.3330
14186SOL    HW244000   7.838   4.882   9.179 -0.4512 -1.2300 -2.3226
14187SOL     OW44001   7.739   7.642   8.495  0.0634  0.1631  0.0292
14187SOL    HW144002   7.795   7.652   8.418  0.0071  0.5695  0.0436
14187SOL    HW244003   7.661   7.598   8.461 -0.2664  0.9781 -0.2855
14188SOL     OW44004   2.002   3.051   3.092 -0.2106  0.6880 -0.3024
14188SOL    HW144005   1.909   3.067   3.110 -0.0924 -0.2385  1.4272
14188SOL    HW244006   2.046   3.077   3.173  1.3311  3.1154 -1.8014
14189SOL     OW44007   4.072   0.829   3.963  0.0467  0.3301 -0.2087
14189SOL    HW144008   4.162   0.801   3.983 -0.8673 -1.6425  1.6407
14189SOL    HW244009   4.041   0.766   3.898 -0.3228  0.3845 -0.0868
14190SOL     OW44010   7.286   3.862   7.947 -0.3414  0.5492  0.4155
14190SOL    HW144011   7.320   3.774   7.962 -2.2953 -0.1933  0.7116
14190SOL    HW244012   7.301   3.878   7.854  0.6843  0.2263  0.5095
14191SOL     OW44013   7.277   1.795  11.737 -0.2080  0.1209 -0.6149
14191SOL    HW144014   7.269   1.837  11.651 -0.7843 -0.4346 -0.8435
14191SOL    HW244015   7.277   1.867  11.800  1.4944  0.6198 -1.1401
14192SOL     OW44016   3.671   2.626   6.897 -0.5397  0.5317 -0.0061
14192SOL    HW144017   3.579   2.601   6.901 -0.6436  0.9872  0.6536
14192SOL    HW244018   3.681   2.669   6.812 -1.3618  2.0703  0.6290
14193SOL     OW44019   6.816   6.256  12.027  0.2398 -0.5916  0.1952
14193SOL    HW144020   6.873   6.185  12.056  0.7066 -1.1235 -1.8588
14193SOL    HW244021   6.875   6.316  11.980 -0.6890 -0.6024 -1.0348
14194SOL     OW44022   2.765   3.737  11.679  0.0751 -0.0475 -0.1836
14194SOL    HW144023   2.833   3.804  11.670 -0.2149  0.2380 -0.2923
14194SOL    HW244024   2.767   3.689  11.597 -1.1112  1.1656 -0.9588
14195SOL     OW44025   1.324   4.339   8.519 -0.6020  0.1882 -0.1954
14195SOL    HW144026   1.291   4.370   8.604  0.4549 -0.0960  0.3268
14195SOL    HW244027   1.281   4.397   8.455 -0.2647  1.3837  0.6233
14196SOL     OW44028   2.515   3.126   1.128 -0.2586  0.0792 -0.9970
14196SOL    HW144029   2.460   3.152   1.202 -0.2833  2.8846 -1.8643
14196SOL    HW244030   2.604   3.144   1.157  0.0169 -1.8413 -0.5675
14197SOL     OW44031   1.722   5.734   6.777  0.2630 -0.0955 -0.6634
14197SOL    HW144032   1.763   5.811   6.737  0.7636  0.2658  0.4931
14197SOL    HW244033   1.631   5.738   6.750  0.6789 -0.1507 -2.1621
14198SOL     OW44034   6.756   5.256   9.219 -0.1169  0.1567 -0.4405
14198SOL    HW144035   6.782   5.337   9.174  2.8397 -1.9965 -3.0749
14198SOL    HW244036   6.692   5.216   9.160 -0.4250 -0.1604  0.0991
14199SOL     OW44037   2.021   5.782  10.502  0.2496 -0.0325 -0.2617
14199SOL    HW144038   1.927   5.773  10.512  0.2483 -1.5570 -1.3431
14199SOL    HW244039   2.058   5.702  10.540  1.2708  1.2737  1.7007
14200SOL     OW44040   7.473   2.663   6.646  0.0471  0.0497  0.2080
14200SOL    HW144041   7.478   2.577   6.604  0.5740  1.2472 -2.3579
14200SOL    HW244042   7.564   2.692   6.653 -0.1553  0.5794  0.7310
14201SOL     OW44043   6.986   0.119  11.279  0.2336  0.4461 -0.0916
14201SOL    HW144044   6.942   0.102  11.362 -0.1166 -0.4558 -0.4537
14201SOL    HW244045   7.079   0.115  11.300  0.1946 -1.8513 -0.0956
14202SOL     OW44046   7.573   2.608   6.093  0.4173 -0.5498  0.4268
14202SOL    HW144047   7.567   2.517   6.123  0.5590 -1.2856 -1.5894
14202SOL    HW244048   7.518   2.610   6.014 -0.8798  1.5404  1.3092
14203SOL     OW44049   6.117   1.739   8.739  0.2516  0.1654 -0.2798
14203SOL    HW144050   6.175   1.808   8.771  0.0505  0.1693  0.0925
14203SOL    HW244051   6.164   1.657   8.756  0.1493  0.1684  0.0227
14204SOL     OW44052   6.864   2.441  11.044  0.5271  0.1007  0.0848
14204SOL    HW144053   6.951   2.449  11.084  1.2795  1.6935 -1.7133
14204SOL    HW244054   6.813   2.391  11.107  2.1595  0.8943  2.1510
14205SOL     OW44055   4.979   7.453   8.083 -0.2911  0.2073 -0.4218
14205SOL    HW144056   5.000   7.430   7.993 -0.0750 -1.5806  0.0260
14205SOL    HW244057   4.885   7.471   8.083 -0.5158 -0.8970 -0.8233
14206SOL     OW44058   1.722   6.478   8.396  0.2956  0.1714  0.0614
14206SOL    HW144059   1.698   6.386   8.384  1.5967 -0.0654 -0.8547
14206SOL    HW244060   1.712   6.493   8.490 -1.8171 -0.3417 -0.0264
14207SOL     OW44061   5.111   6.823   4.407  0.2928 -0.1561  0.1312
14207SOL    HW144062   5.190   6.852   4.362 -0.0171  1.4069  0.5324
14207SOL    HW244063   5.040   6.840   4.344  0.1410 -0.3423  0.2511
14208SOL     OW44064   0.515   3.965   0.802  0.3392  0.2343  0.5786
14208SOL    HW144065   0.502   4.039   0.861 -2.3221  0.8188 -0.6041
14208SOL    HW244066   0.486   3.996   0.717 -2.0988 -2.4522  0.2664
14209SOL     OW44067   5.463   3.022   9.292  0.3818 -0.1995 -0.0416
14209SOL    HW144068   5.454   2.949   9.354  3.0422  0.5852  1.4002
14209SOL    HW244069   5.516   2.985   9.221 -0.0331 -0.2404 -0.3294
14210SOL     OW44070   5.803   3.227   2.276 -0.1035 -0.5367  0.3878
14210SOL    HW144071   5.782   3.310   2.320  3.5598  0.8711 -0.2193
14210SOL    HW244072   5.773   3.239   2.186 -1.2509 -0.6611  0.7327
14211SOL     OW44073   6.786   7.583  12.253 -0.2151 -0.1026  0.0487
14211SOL    HW144074   6.761   7.492  12.266 -0.6383  0.1050  0.7924
14211SOL    HW244075   6.714   7.633  12.292 -0.1180  0.5547 -0.5860
14212SOL     OW44076   2.135   3.022   7.097 -0.2346 -0.5110 -0.1524
14212SOL    HW144077   2.068   3.070   7.049  1.1438  2.7189  0.8715
14212SOL    HW244078   2.093   2.998   7.180 -0.8502 -0.8174 -0.5457
14213SOL     OW44079   6.073   2.559   6.452  0.1141 -0.2622 -0.0766
14213SOL    HW144080   6.095   2.598   6.536 -2.6470 -0.6492  0.9423
14213SOL    HW244081   6.110   2.619   6.387 -0.6098  1.9442  1.4300
14214SOL     OW44082   1.228   5.988  10.548  0.6682 -0.2602  0.1196
14214SOL    HW144083   1.290   5.961  10.616  0.9737  0.1670  0.0205
14214SOL    HW244084   1.271   5.965  10.466  1.0141  0.6598  0.0278
14215SOL     OW44085   6.663   0.295   8.577  0.0555  0.5220 -0.2061
14215SOL    HW144086   6.692   0.368   8.523 -0.4955  0.2653 -0.8657
14215SOL    HW244087   6.619   0.235   8.516 -1.6675  0.7960  0.6852
14216SOL     OW44088   2.308   1.708   8.669 -0.2126  0.1219 -0.4568
14216SOL    HW144089   2.251   1.631   8.663 -1.5612  1.0742 -0.2297
14216SOL    HW244090   2.270   1.771   8.609 -0.6549  1.5528  1.2396
14217SOL     OW44091   5.107   0.761   7.804 -0.2842 -0.0704  0.4475
14217SOL    HW144092   5.080   0.811   7.881  0.3323  0.2487  0.4645
14217SOL    HW244093   5.085   0.670   7.824 -1.4462  0.1921  0.4085
14218SOL     OW44094   6.259   6.354   4.150 -0.7254 -0.2207  0.3310
14218SOL    HW144095   6.175   6.319   4.119 -1.9949  2.7529  0.0972
14218SOL    HW244096   6.244   6.374   4.242  0.8877 -2.7208  1.2443
14219SOL     OW44097   6.670   3.875   9.696  0.2820  0.1174  0.1543
14219SOL    HW144098   6.618   3.950   9.724  0.4351  0.8503 -1.3966
14219SOL    HW244099   6.606   3.804   9.684 -0.3057  0.8139 -1.0561
14220SOL     OW44100   6.214   5.857   4.212  0.9489 -0.6126  0.4354
14220SOL    HW144101   6.243   5.771   4.243  0.6858 -0.1158  2.1662
14220SOL    HW244102   6.266   5.919   4.264  1.1682  0.2903 -0.8261
14221SOL     OW44103   0.839   2.249  10.975 -0.0581  0.1694  0.2969
14221SOL    HW144104   0.780   2.226  11.047 -0.6049  0.2518 -0.1191
14221SOL    HW244105   0.870   2.337  10.996  0.2196 -0.0219  0.7083
14222SOL     OW44106   0.242   4.449   9.132  0.5269 -0.2816  0.6050
14222SOL    HW144107   0.261   4.378   9.194  0.6598 -1.4408 -0.7196
14222SOL    HW244108   0.327   4.471   9.094  0.8128  1.9200  2.3039
14223SOL     OW44109   0.107   5.784   4.572  0.0141  0.4012 -0.0849
14223SOL    HW144110   0.144   5.697   4.589 -0.0778  0.1027 -1.3155
14223SOL    HW244111   0.182   5.836   4.542 -0.3964 -0.0702 -2.1098
14224SOL     OW44112   1.710   4.546   4.241 -0.2772 -0.3591 -0.4762
14224SOL    HW144113   1.721   4.468   4.187 -0.4834  0.4985 -1.8000
14224SOL    HW244114   1.642   4.597   4.196  0.0634  0.7208  0.2024
14225SOL     OW44115   2.123   2.853   1.312 -0.2450 -0.4496  0.5206
14225SOL    HW144116   2.197   2.844   1.253 -0.2520 -3.2635  0.8194
14225SOL    HW244117   2.082   2.935   1.286  3.5534  1.8729  1.1003
14226SOL     OW44118   2.899   7.661   8.398 -0.4900 -0.0270 -0.1366
14226SOL    HW144119   2.875   7.663   8.305 -0.9447 -0.2543 -0.0255
14226SOL    HW244120   2.874   7.573   8.427 -2.0490  0.6373  0.6423
14227SOL     OW44121   7.585   6.217   0.020  0.1080 -0.1923 -0.6289
14227SOL    HW144122   7.536   6.267  -0.046 -0.3259 -0.7777 -0.7600
14227SOL    HW244123   7.517   6.183   0.079  0.5414  1.1231  0.7077
14228SOL     OW44124   6.497   3.247   2.893 -0.1292 -0.3963  0.1228
14228SOL    HW144125   6.534   3.227   2.979 -0.6461 -0.3126  0.3677
14228SOL    HW244126   6.572   3.247   2.834  0.0850 -1.5663  0.3737
14229SOL     OW44127   7.719   1.198   7.299  0.3156 -0.0316  0.2142
14229SOL    HW144128   7.777   1.128   7.329  1.0375  0.7612  0.7183
14229SOL    HW244129   7.712   1.185   7.205  0.3586 -0.8357  0.3145
14230SOL     OW44130   4.613   5.037   8.799  0.3538 -0.8659  0.2974
14230SOL    HW144131   4.538   4.989   8.834 -2.0140  1.4095 -1.2127
14230SOL    HW244132   4.689   4.983   8.821 -1.7994 -3.9422  0.8725
14231SOL     OW44133   3.180   6.074   2.020  0.4690 -0.6197 -0.5018
14231SOL    HW144134   3.250   6.132   1.991  0.5014 -1.7302 -2.9422
14231SOL    HW244135   3.224   6.010   2.076  0.8024  0.5044  0.5366
14232SOL     OW44136   6.167   5.869   5.682 -0.2978  0.3298  0.3168
14232SOL    HW144137   6.214   5.926   5.620  0.6990  0.5195  1.2122
14232SOL    HW244138   6.075   5.888   5.667  0.0029  2.0797  0.4676
14233SOL     OW44139   3.117   6.135   1.087 -0.1572 -0.5567 -0.1786
14233SOL    HW144140   3.183   6.066   1.086  1.9028  1.2723  0.3507
14233SOL    HW244141   3.167   6.216   1.078 -2.2236  1.0444  1.5701
14234SOL     OW44142   2.704   1.750   1.371  0.2889 -0.2090  0.2226
14234SOL    HW144143   2.648   1.709   1.437 -0.1367  1.1228  0.7030
14234SOL    HW244144   2.739   1.676   1.321  0.1925 -1.2067  1.5790
14235SOL     OW44145   4.617   5.762   8.353  0.3151 -0.5297 -0.3493
14235SOL    HW144146   4.686   5.770   8.287 -0.4688  0.2156 -1.1094
14235SOL    HW244147   4.663   5.740   8.433  1.7330  2.2743 -0.2788
14236SOL     OW44148   1.675   0.813   4.023  0.3207 -0.2182 -0.0628
14236SOL    HW144149   1.633   0.780   4.102  0.1619 -0.6525 -0.3200
14236SOL    HW244150   1.686   0.735   3.968 -1.1935  0.3208 -1.2011
14237SOL     OW44151   6.479   0.915   4.662 -0.1046  0.2288  0.4458
14237SOL    HW144152   6.482   0.824   4.633 -2.7976  0.3387 -0.4340
14237SOL    HW244153   6.442   0.912   4.750 -0.0041  0.4597  0.4968
14238SOL     OW44154   3.853   5.710   4.163  0.2867  0.3407 -0.6401
14238SOL    HW144155   3.916   5.738   4.097  0.8487  1.7116  0.4195
14238SOL    HW244156   3.771   5.697   4.114  0.6247  1.5485 -1.5788
14239SOL     OW44157   0.233   4.460  10.156  0.1264  0.5923 -0.2276
14239SOL    HW144158   0.285   4.384  10.181  0.5629  0.1242 -2.3606
14239SOL    HW244159   0.150   4.424  10.126  0.5103  0.8349 -1.7155
14240SOL     OW44160   7.721   0.414   8.691  0.4875  0.4067 -0.2866
14240SOL    HW144161   7.747   0.505   8.705 -0.7888  0.7982 -0.2819
14240SOL    HW244162   7.661   0.418   8.616  1.0821 -0.5587 -0.8356
14241SOL     OW44163   7.561   7.660   5.769  0.3964 -0.2878 -0.1331
14241SOL    HW144164   7.595   7.708   5.693  0.4408 -1.0649 -0.6245
14241SOL    HW244165   7.470   7.642   5.746  0.1813  0.1647  0.3566
14242SOL     OW44166   5.251   3.070   3.370 -0.0437  0.5120  0.1512
14242SOL    HW144167   5.220   2.981   3.354  1.6276  0.2712 -2.3770
14242SOL    HW244168   5.236   3.084   3.463  0.3174 -2.7040  0.8204
14243SOL     OW44169   4.790   0.472   1.888  0.1678 -0.2465 -0.1863
14243SOL    HW144170   4.856   0.533   1.923  0.3427  0.1360 -1.1461
14243SOL    HW244171   4.836   0.388   1.882 -0.0445 -0.4594  1.0516
14244SOL     OW44172   3.084   3.848   4.630  0.0894 -0.7671 -0.5377
14244SOL    HW144173   3.145   3.922   4.626 -0.1941 -0.5619 -1.2268
14244SOL    HW244174   3.139   3.770   4.619  0.2861 -0.6115 -0.6636
14245SOL     OW44175   5.117   5.838   1.769  0.0577  0.3086  0.0806
14245SOL    HW144176   5.155   5.882   1.693 -0.7478  1.1440  0.1413
14245SOL    HW244177   5.178   5.768   1.790  0.8757  0.8005 -0.6213
14246SOL     OW44178   6.663   7.202   2.313  0.5767  0.0392 -0.3173
14246SOL    HW144179   6.681   7.295   2.295  0.6412 -0.2422 -1.8171
14246SOL    HW244180   6.583   7.183   2.263 -0.2824 -0.3679  1.1475
14247SOL     OW44181   7.251   5.695  12.298 -0.3879 -0.3902  0.1266
14247SOL    HW144182   7.198   5.772  12.277 -2.0032 -1.5286 -0.0852
14247SOL    HW244183   7.195   5.640  12.351  0.6642 -1.5498  0.0884
14248SOL     OW44184   1.868   5.791   9.754  0.6444  0.6478 -0.2715
14248SOL    HW144185   1.881   5.732   9.829  3.3525  2.3327  0.7692
14248SOL    HW244186   1.903   5.875   9.784 -1.8320  2.4807 -2.1356
14249SOL     OW44187   2.723   1.165  11.615  0.4851  0.1189 -0.1662
14249SOL    HW144188   2.707   1.070  11.615 -0.0587  0.1688  2.0344
14249SOL    HW244189   2.636   1.204  11.605  0.6255  0.4024 -0.3079
14250SOL     OW44190   6.506   2.145  10.513 -0.6645  0.2914 -0.3056
14250SOL    HW144191   6.503   2.186  10.427  0.8786 -2.9057 -2.0651
14250SOL    HW244192   6.422   2.099  10.521 -0.3561 -0.3477 -0.6575
14251SOL     OW44193   5.288   5.906   4.935 -0.2103  0.0735  0.2202
14251SOL    HW144194   5.314   5.824   4.891 -1.6901  0.2915 -1.1833
14251SOL    HW244195   5.370   5.942   4.969  0.6746 -1.3143 -0.3308
14252SOL     OW44196   2.346   6.801   7.011  0.2138  0.2612 -0.7217
14252SOL    HW144197   2.308   6.722   7.048 -0.7331  0.9078 -0.2569
14252SOL    HW244198   2.324   6.798   6.918 -0.2607  0.2145 -0.6114
14253SOL     OW44199   7.864   6.277   1.027 -0.2273 -0.6770  0.0206
14253SOL    HW144200   7.931   6.221   1.065  0.1743 -0.2482 -0.0380
14253SOL    HW244201   7.795   6.281   1.094 -0.6088 -1.8378 -0.2852
14254SOL     OW44202   0.998   1.113   4.259 -0.0707 -0.5053  0.2821
14254SOL    HW144203   1.088   1.146   4.260  0.5077 -1.9907  1.0508
14254SOL    HW244204   0.948   1.176   4.310  0.2945  0.8724 -0.9723
14255SOL     OW44205   1.978   2.102  11.639  0.1578  0.1831  0.3454
14255SOL    HW144206   1.900   2.155  11.657  0.2065  0.1792  0.5763
14255SOL    HW244207   2.046   2.140  11.695  0.5837  0.8000 -0.5735
14256SOL     OW44208   1.292   0.693   0.083 -0.2728 -0.3884 -0.1640
14256SOL    HW144209   1.378   0.723   0.111 -0.1151 -0.5975 -0.4175
14256SOL    HW244210   1.303   0.600   0.066 -0.9456 -0.7616  1.3387
14257SOL     OW44211   4.739   3.895  11.971 -0.1508  0.4988  0.1607
14257SOL    HW144212   4.734   3.939  11.886 -0.4450 -0.0889 -0.1320
14257SOL    HW244213   4.816   3.933  12.013  1.4185 -0.8428 -1.3383
14258SOL     OW44214   2.079   4.067  11.734 -0.0359 -0.0105  0.1178
14258SOL    HW144215   2.139   4.057  11.808  1.3810  1.6641 -0.7261
14258SOL    HW244216   2.034   3.983  11.728  1.2974 -0.8855  1.5922
14259SOL     OW44217   3.491   7.787   5.306 -0.3155  0.1291  0.6087
14259SOL    HW144218   3.449   7.818   5.225 -0.8963  0.5180  1.0514
14259SOL    HW244219   3.493   7.692   5.296 -2.0704  0.0201  0.9123
14260SOL     OW44220   1.828   5.850   8.946  0.1684  0.1094  0.7940
14260SOL    HW144221   1.735   5.873   8.952 -0.1420 -1.0838  0.8746
14260SOL    HW244222   1.848   5.809   9.030  0.8360  0.5645  0.8625
14261SOL     OW44223   5.929   6.437   6.953 -0.3697  0.0922 -0.1035
14261SOL    HW144224   5.905   6.344   6.943  0.2034 -0.0680 -0.0492
14261SOL    HW244225   5.970   6.441   7.039 -0.7372  0.4746  0.0548
14262SOL     OW44226   6.643   1.725  10.512 -0.2295  0.2447  0.0241
14262SOL    HW144227   6.632   1.819  10.500 -0.1415  0.1018 -1.4078
14262SOL    HW244228   6.612   1.687  10.430  0.7470 -0.8925  0.1531
14263SOL     OW44229   3.026   1.925   4.950 -0.4327  0.5631 -0.0998
14263SOL    HW144230   2.965   1.944   4.879 -0.6681  1.6310  0.3697
14263SOL    HW244231   3.005   1.990   5.017 -1.7462 -1.7475  1.9016
14264SOL     OW44232   4.147   0.883   8.818 -0.1403 -0.1328 -0.2648
14264SOL    HW144233   4.132   0.794   8.851 -1.2840 -1.0402 -2.9298
14264SOL    HW244234   4.225   0.874   8.763  0.7665  0.9400  0.8174
14265SOL     OW44235   1.456   3.126   0.301 -0.0292 -0.8353  0.2777
14265SOL    HW144236   1.364   3.102   0.289 -0.3405  0.6060 -0.4729
14265SOL    HW244237   1.495   3.051   0.346 -1.7357 -1.1700  1.2958
14266SOL     OW44238   5.228   7.292   2.196  0.2369 -0.6311  0.2044
14266SOL    HW144239   5.229   7.317   2.289  2.1193 -0.5533  0.2125
14266SOL    HW244240   5.141   7.316   2.166  0.3125  1.4799  1.4121
14267SOL     OW44241   7.308   0.153   7.995  0.8417 -0.3480 -0.0532
14267SOL    HW144242   7.295   0.182   8.086 -1.3516 -2.0937  0.2804
14267SOL    HW244243   7.338   0.231   7.949 -1.3404  1.5123  1.4800
14268SOL     OW44244   1.507   1.739   4.735  0.3169  0.1203 -0.2909
14268SOL    HW144245   1.503   1.654   4.779  0.4385 -0.0313 -0.5731
14268SOL    HW244246   1.482   1.802   4.803 -1.3896 -0.2741 -0.5272
14269SOL     OW44247   1.420   2.180   9.655  0.4805  0.3613 -0.0668
14269SOL    HW144248   1.393   2.105   9.709  0.3753  0.6770  0.3243
14269SOL    HW244249   1.490   2.221   9.705 -0.3704  1.3088  0.3687
14270SOL     OW44250   0.607   2.060   1.063  0.8326 -0.0201 -0.0656
14270SOL    HW144251   0.634   1.969   1.075  0.2038 -0.1960  0.0340
14270SOL    HW244252   0.566   2.061   0.976 -0.0902 -0.0543  0.3661
14271SOL     OW44253   0.142   4.379   5.051 -0.0999  0.5543  0.5595
14271SOL    HW144254   0.224   4.355   5.009 -0.5020  1.7920 -1.0173
14271SOL    HW244255   0.074   4.336   4.999 -0.5941  1.9899 -0.0581
14272SOL     OW44256   1.997   1.942   8.955  0.3488  0.0554 -0.3585
14272SOL    HW144257   2.010   1.853   8.989  0.6118  0.4556  0.6085
14272SOL    HW244258   2.082   1.965   8.917  0.4589  0.1239 -0.0686
14273SOL     OW44259   5.742   3.229   7.463  0.6034 -0.3892  0.1648
14273SOL    HW144260   5.755   3.156   7.524 -0.7462 -0.7209  0.0756
14273SOL    HW244261   5.767   3.194   7.378  0.8732 -0.4437  0.2638
14274SOL     OW44262   3.174   1.626  10.210 -0.4818  0.1740  0.2030
14274SOL    HW144263   3.258   1.600  10.248  0.5670  2.6578 -0.1723
14274SOL    HW244264   3.127   1.667  10.282 -0.6690  0.2293  0.0491
14275SOL     OW44265   6.629   2.365   9.614  0.0059  0.0534 -0.2886
14275SOL    HW144266   6.562   2.423   9.578  0.2361  0.6762  0.2680
14275SOL    HW244267   6.583   2.309   9.676 -0.2327 -0.4306 -0.8912
14276SOL     OW44268   5.054   4.233   4.327 -0.5816 -1.1366  0.3840
14276SOL    HW144269   5.034   4.320   4.290  1.6387  0.2009  2.0689
14276SOL    HW244270   5.092   4.184   4.254  1.8026  0.7358  0.2394
14277SOL     OW44271   7.791   6.855   6.690  0.4848  0.0100 -0.2308
14277SOL    HW144272   7.721   6.917   6.710  0.5073  0.0130 -0.1613
14277SOL    HW244273   7.872   6.901   6.711  0.7792  1.3834 -3.6743
14278SOL     OW44274   2.694   1.223   6.946 -0.0283  0.3735  0.0686
14278SOL    HW144275   2.725   1.154   7.005  0.5350 -0.3430 -1.0269
14278SOL    HW244276   2.744   1.209   6.865 -3.1469 -0.8547 -1.8392
14279SOL     OW44277   0.489   6.049  11.632  0.2964  0.1848 -0.0689
14279SOL    HW144278   0.561   6.009  11.584  0.7276  1.3187 -0.4219
14279SOL    HW244279   0.530   6.120  11.682 -0.7181  1.7752 -1.3712
14280SOL     OW44280   4.912   6.184   6.863 -0.0174 -0.6768 -0.2602
14280SOL    HW144281   4.993   6.133   6.861 -0.1230 -0.8633  0.0429
14280SOL    HW244282   4.923   6.244   6.937 -0.8050 -1.8211  0.8403
14281SOL     OW44283   7.484   0.539   7.957 -0.1683 -0.5042  0.0406
14281SOL    HW144284   7.524   0.495   7.882  0.5166  0.1647  0.0093
14281SOL    HW244285   7.396   0.501   7.962  0.2905 -1.6572 -0.1721
14282SOL     OW44286   2.972   1.264   3.295 -0.0539  0.8524 -0.2424
14282SOL    HW144287   2.911   1.279   3.366  0.4309 -2.9785  1.2090
14282SOL    HW244288   3.057   1.293   3.330 -0.4099  3.1273 -1.0621
14283SOL     OW44289   6.536   7.486   0.840 -0.4797 -0.1746  0.1917
14283SOL    HW144290   6.532   7.574   0.878 -2.0651  0.4710 -1.3248
14283SOL    HW244291   6.496   7.430   0.906 -1.4663  0.6179  0.2891
14284SOL     OW44292   6.949   6.376   3.788  0.5150 -0.0508 -0.3498
14284SOL    HW144293   7.030   6.406   3.828  0.9687 -2.3305  0.6128
14284SOL    HW244294   6.886   6.370   3.860 -0.6200  1.8041 -1.0993
14285SOL     OW44295   6.215   5.363   2.442 -0.2242 -0.2696  0.1986
14285SOL    HW144296   6.133   5.411   2.432  1.1736  2.2614  0.0842
14285SOL    HW244297   6.275   5.427   2.480  2.1857 -1.4874 -1.3487
14286SOL     OW44298   2.668   5.903   1.557 -0.2535  0.1289 -0.3347
14286SOL    HW144299   2.605   5.832   1.555  0.2946 -0.3684 -0.1198
14286SOL    HW244300   2.713   5.898   1.473  0.1930 -0.1531 -0.0813
14287SOL     OW44301   7.758   7.339   9.925 -0.2221 -0.4507  0.3229
14287SOL    HW144302   7.750   7.434   9.918 -0.5877 -0.4515  0.7067
14287SOL    HW244303   7.839   7.318   9.879  1.3364  0.3295  2.5797
14288SOL     OW44304   3.688   1.647   3.208 -0.2524 -0.0511  0.0112
14288SOL    HW144305   3.682   1.628   3.114 -0.5001  0.8447 -0.1680
14288SOL    HW244306   3.687   1.562   3.250 -2.3758 -0.4263 -0.6891
14289SOL     OW44307   6.291   2.908   7.510 -0.2768 -0.0726  0.3167
14289SOL    HW144308   6.224   2.919   7.578 -0.3857 -1.5523  0.4869
14289SOL    HW244309   6.314   2.815   7.515  2.7467  0.6364  1.1363
14290SOL     OW44310   3.204   2.086   9.348  0.0318  0.0505 -0.2155
14290SOL    HW144311   3.271   2.035   9.303  0.8601  1.4763 -0.6701
14290SOL    HW244312   3.156   2.130   9.278 -0.3532  0.2676  0.1785
14291SOL     OW44313   6.874   7.918   8.931 -0.1989 -0.1472  0.5677
14291SOL    HW144314   6.950   7.879   8.888  0.9783  0.9952  1.5500
14291SOL    HW244315   6.855   7.996   8.881 -1.2798 -0.8554 -0.1715
14292SOL     OW44316   3.712   3.265   7.270  0.1292  0.9214 -0.6826
14292SOL    HW144317   3.621   3.274   7.299  0.3786  0.1140  0.4330
14292SOL    HW244318   3.708   3.276   7.175 -0.9289  2.2386 -0.5083
14293SOL     OW44319   5.845   3.430   5.691 -0.3333  0.4043  0.0136
14293SOL    HW144320   5.879   3.376   5.621 -0.9081  0.1159 -0.0558
14293SOL    HW244321   5.768   3.381   5.723 -0.2832  0.7009  0.6013
14294SOL     OW44322   4.368   6.573   4.794  0.2841 -0.0757 -0.2755
14294SOL    HW144323   4.378   6.615   4.879 -1.1885 -1.1032  0.4601
14294SOL    HW244324   4.429   6.619   4.737  1.2698  0.6813  1.3133
14295SOL     OW44325   2.977   4.054  10.095 -0.0481 -0.2927 -0.4471
14295SOL    HW144326   3.060   4.102  10.092 -1.0949  1.5247 -2.0017
14295SOL    HW244327   2.944   4.057  10.005 -1.2191 -2.0871 -0.1263
14296SOL     OW44328   0.707   6.987   1.742 -0.3664 -0.5542  0.1264
14296SOL    HW144329   0.740   6.980   1.653  0.6481 -1.1506  0.5306
14296SOL    HW244330   0.766   7.050   1.784  0.4923 -1.8606  0.9462
14297SOL     OW44331   0.845   6.671   7.925  0.0440 -0.2377 -0.0142
14297SOL    HW144332   0.796   6.732   7.870 -2.3522 -1.4614  0.6444
14297SOL    HW244333   0.779   6.631   7.982  2.0200 -0.9519  1.9541
14298SOL     OW44334   0.827   1.829   4.246  0.1737 -0.1096  0.0275
14298SOL    HW144335   0.919   1.810   4.230 -0.0183 -0.3203 -0.8735
14298SOL    HW244336   0.786   1.743   4.257  0.1003 -0.0127  0.5547
14299SOL     OW44337   3.822   1.471  12.126  0.2475 -0.4558 -1.0356
14299SOL    HW144338   3.746   1.526  12.110  0.3931  0.0950  0.0363
14299SOL    HW244339   3.889   1.504  12.067 -0.1449 -0.5279 -1.5276
14300SOL     OW44340   3.773   3.971   5.301 -0.4846 -0.0105  0.5197
14300SOL    HW144341   3.710   4.043   5.297 -0.7051 -0.2462 -0.6283
14300SOL    HW244342   3.724   3.895   5.267  0.3558 -0.2448 -0.1871
14301SOL     OW44343   6.157   7.080   3.191  0.6243  0.0890 -0.6435
14301SOL    HW144344   6.100   7.026   3.137  0.1172 -0.1074  0.0743
14301SOL    HW244345   6.205   7.135   3.129 -1.4642  1.3516 -1.2212
14302SOL     OW44346   3.469   4.745   4.816 -0.2819 -0.5559  0.7109
14302SOL    HW144347   3.547   4.690   4.811  2.0477  2.5168  0.7868
14302SOL    HW244348   3.479   4.794   4.898 -3.2367 -1.2192  1.6136
14303SOL     OW44349   1.192   1.462  11.029 -0.4482 -0.0664 -0.0787
14303SOL    HW144350   1.139   1.502  11.098  0.5916  1.0683  0.0864
14303SOL    HW244351   1.269   1.429  11.074  0.0956  0.4035 -0.6597
14304SOL     OW44352   7.431   3.319   9.231  0.1339 -0.1976  0.1497
14304SOL    HW144353   7.452   3.362   9.148  1.8894 -0.7337  0.2655
14304SOL    HW244354   7.450   3.226   9.215 -0.2786 -0.4206  0.9113
14305SOL     OW44355   7.165   0.737   9.661 -0.2437 -0.0818 -0.0058
14305SOL    HW144356   7.139   0.697   9.744  0.4053 -2.0320 -0.6719
14305SOL    HW244357   7.260   0.750   9.670 -0.3866  1.0003  0.0523
14306SOL     OW44358   6.291   2.984   5.381  0.3035 -0.4747 -0.3473
14306SOL    HW144359   6.322   2.945   5.299  1.0149 -0.5002 -0.0710
14306SOL    HW244360   6.361   2.968   5.444  0.2158  0.4487  0.0050
14307SOL     OW44361   7.233   3.856   6.942  0.3026  0.3110 -0.3197
14307SOL    HW144362   7.144   3.867   6.974  0.0953 -1.1872 -0.3084
14307SOL    HW244363   7.280   3.933   6.975 -0.8255  0.7920  0.2122
14308SOL     OW44364   6.034   5.134   0.066 -0.2313 -0.6458 -0.0358
14308SOL    HW144365   6.123   5.145   0.097 -1.1332 -0.1993  2.6447
14308SOL    HW244366   5.980   5.142   0.144 -2.6813 -0.3306 -1.6414
14309SOL     OW44367   6.965   1.629   9.527 -0.1035  0.4789 -0.0808
14309SOL    HW144368   7.041   1.688   9.523 -0.5036  0.9285 -1.1933
14309SOL    HW244369   7.001   1.543   9.506 -0.0385  0.8342 -1.5043
14310SOL     OW44370   2.642   0.939   4.859 -0.3101  0.4107 -0.5653
14310SOL    HW144371   2.723   0.956   4.811  0.7384  0.7379  1.2404
14310SOL    HW244372   2.669   0.927   4.949 -1.7612 -3.8060 -0.4666
14311SOL     OW44373   6.015   1.769   9.792  0.3310  0.0885 -0.7027
14311SOL    HW144374   5.961   1.833   9.837  0.6315 -1.1814  1.6029
14311SOL    HW244375   5.953   1.709   9.751 -0.0163 -0.2934  0.3579
14312SOL     OW44376   7.068   5.775   1.496  0.5860 -0.2453 -0.1077
14312SOL    HW144377   7.003   5.794   1.428 -0.2233 -0.1725  0.6580
14312SOL    HW244378   7.015   5.763   1.576  1.6641  2.8176  1.2240
14313SOL     OW44379   7.659   3.157   7.381 -0.2573  0.1173  0.3001
14313SOL    HW144380   7.615   3.076   7.410  0.5737 -0.9002 -1.1559
14313SOL    HW244381   7.731   3.126   7.326  0.1255  1.8708 -0.2234
14314SOL     OW44382   6.728   5.303   5.864  0.0968  0.4905  0.2499
14314SOL    HW144383   6.726   5.383   5.812 -1.8625 -0.0267 -0.5331
14314SOL    HW244384   6.652   5.310   5.922  0.0116 -0.7141  0.3064
14315SOL     OW44385   2.433   4.314   9.542 -0.2091  1.1018 -0.4665
14315SOL    HW144386   2.373   4.261   9.488  0.9861 -0.6497 -0.1827
14315SOL    HW244387   2.445   4.262   9.621 -0.6961  2.8995  0.8488
14316SOL     OW44388   5.826   3.837   2.640 -0.0059 -0.1819  0.1270
14316SOL    HW144389   5.907   3.833   2.691  1.7241 -4.1033 -2.4607
14316SOL    HW244390   5.771   3.767   2.677 -0.6221 -0.0396 -0.5012
14317SOL     OW44391   3.917   7.567   4.052  0.4177 -0.3201 -0.4147
14317SOL    HW144392   3.945   7.504   4.119 -0.5099 -0.6757 -0.3496
14317SOL    HW244393   3.891   7.514   3.978 -0.7736 -0.0530 -0.2085
14318SOL     OW44394   6.253   6.663   5.698  0.3599  0.4391  0.6845
14318SOL    HW144395   6.341   6.643   5.730  0.5068  1.3067  0.8467
14318SOL    HW244396   6.251   6.628   5.609  0.7042 -0.0002  0.8418
14319SOL     OW44397   0.803   0.628  11.262 -0.0216 -0.2098  0.1170
14319SOL    HW144398   0.888   0.587  11.278  0.2675  1.2820  3.2080
14319SOL    HW244399   0.747   0.556  11.234  1.6109 -1.7689  0.6331
14320SOL     OW44400   2.371   3.155   1.351 -0.3050  0.3001  0.3106
14320SOL    HW144401   2.334   3.079   1.396 -1.6055  1.3082  0.9921
14320SOL    HW244402   2.402   3.212   1.421  0.5469  0.4775 -0.1918
14321SOL     OW44403   7.634   7.518  10.243 -0.1147  0.3952  0.5416
14321SOL    HW144404   7.707   7.482  10.293  0.7043  0.8400 -0.2992
14321SOL    HW244405   7.564   7.453  10.251  0.8759 -0.7636  0.1359
14322SOL     OW44406   2.744   4.094   3.090  0.1021 -0.3635 -0.3373
14322SOL    HW144407   2.765   4.149   3.015 -2.6944 -0.0526 -0.9889
14322SOL    HW244408   2.694   4.151   3.148 -0.4929 -1.4639  0.2638
14323SOL     OW44409   2.055   0.038  11.623 -0.0397  0.1581  0.4265
14323SOL    HW144410   2.142   0.001  11.609  0.2622  0.6889  0.8675
14323SOL    HW244411   2.071   0.122  11.665 -0.7764  0.1280  0.7866
14324SOL     OW44412   2.313   4.508  11.814 -0.0343 -0.1160  0.6101
14324SOL    HW144413   2.367   4.534  11.740 -1.8987  1.3317 -0.3292
14324SOL    HW244414   2.317   4.412  11.815  0.7647 -0.1135 -0.7686
14325SOL     OW44415   3.319   2.593   1.720 -0.1815  0.2383  0.4862
14325SOL    HW144416   3.397   2.570   1.771 -0.4885 -0.9418  0.4472
14325SOL    HW244417   3.270   2.651   1.777  0.6088  0.8043  0.6053
14326SOL     OW44418   3.554   5.036   2.911 -0.2344  0.4538  0.0368
14326SOL    HW144419   3.482   4.973   2.923 -2.0393  2.2276 -0.8646
14326SOL    HW244420   3.540   5.102   2.979  0.5748  0.8017 -0.1267
14327SOL     OW44421   0.211   7.659   6.871  0.2041  0.2902  0.3945
14327SOL    HW144422   0.136   7.617   6.827  1.4783 -1.7660  0.0764
14327SOL    HW244423   0.211   7.748   6.837 -1.9073  0.2578  0.1620
14328SOL     OW44424   3.358   0.563   8.298  0.7940 -0.1153  0.1595
14328SOL    HW144425   3.287   0.539   8.358 -0.0838  1.1908 -0.3167
14328SOL    HW244426   3.415   0.486   8.297 -2.2139 -2.5872 -1.8675
14329SOL     OW44427   4.835   6.523   8.124 -0.2435 -0.8584 -0.1497
14329SOL    HW144428   4.843   6.614   8.150 -0.5635 -0.3837 -1.6068
14329SOL    HW244429   4.745   6.513   8.094  0.5358 -0.7853 -2.8653
14330SOL     OW44430   3.215   4.955   0.195 -0.6447 -0.3242  0.2556
14330SOL    HW144431   3.289   4.907   0.157  1.3192  1.1274  1.9965
14330SOL    HW244432   3.173   4.891   0.253 -0.6967 -1.1390 -0.6602
14331SOL     OW44433   6.994   4.483   4.101 -0.0484  0.5391 -0.5797
14331SOL    HW144434   7.074   4.534   4.116  0.0670  0.5407 -1.1410
14331SOL    HW244435   7.026   4.399   4.067 -0.2122 -0.1187  0.8505
14332SOL     OW44436   0.120   7.726   7.473 -0.1827 -0.0696 -0.4347
14332SOL    HW144437   0.202   7.734   7.424  0.0343 -0.1938 -0.0968
14332SOL    HW244438   0.146   7.684   7.555 -0.8064 -1.4986 -0.9330
14333SOL     OW44439   1.679   7.571  10.106 -0.1015  0.1286 -0.3597
14333SOL    HW144440   1.657   7.520  10.029 -3.4902  0.0834  0.4960
14333SOL    HW244441   1.701   7.506  10.173 -1.0053 -0.0433 -0.2254
14334SOL     OW44442   5.879   5.851   7.965 -0.1920 -0.4027 -0.0426
14334SOL    HW144443   5.947   5.838   8.030 -0.7970  0.1305  0.7239
14334SOL    HW244444   5.901   5.935   7.923 -1.3930  0.7913  1.5661
14335SOL     OW44445   4.663   5.536   0.634 -0.4533  0.1290  0.0588
14335SOL    HW144446   4.640   5.514   0.724 -1.9452  0.6902 -0.1629
14335SOL    HW244447   4.697   5.454   0.598  1.7574  0.3006  1.5802
14336SOL     OW44448   5.581   1.947  12.418 -0.2801  0.4161 -0.4267
14336SOL    HW144449   5.572   1.852  12.425 -2.4317  0.6358  0.8934
14336SOL    HW244450   5.518   1.971  12.350 -1.3868  1.0532  0.7821
14337SOL     OW44451   5.546   7.406   3.294  0.1566 -0.0138  0.2641
14337SOL    HW144452   5.601   7.401   3.373  1.5294  2.1870 -0.4741
14337SOL    HW244453   5.513   7.496   3.294  0.1541  0.0154 -1.6459
14338SOL     OW44454   1.649   3.448   6.567  0.2503  0.2105  0.1652
14338SOL    HW144455   1.667   3.357   6.544 -0.2258  0.2846 -0.5256
14338SOL    HW244456   1.682   3.499   6.494 -0.6353  0.4998 -0.0482
14339SOL     OW44457   5.603   3.353   9.817  0.3659 -0.2642 -0.3059
14339SOL    HW144458   5.596   3.449   9.813 -0.7569 -0.3597 -1.3114
14339SOL    HW244459   5.528   3.322   9.766  0.3103 -1.6950  0.6053
14340SOL     OW44460   3.966   6.427   6.381 -0.1725 -0.4051 -0.2303
14340SOL    HW144461   3.963   6.523   6.384 -1.7185 -0.3174 -2.3451
14340SOL    HW244462   4.016   6.407   6.302  0.5594 -1.3834  0.4567
14341SOL     OW44463   4.374   2.198   0.438  0.5129  0.3368 -0.4079
14341SOL    HW144464   4.308   2.139   0.473 -0.2434  0.4787 -1.5350
14341SOL    HW244465   4.359   2.281   0.483  0.7305  0.0331  0.2312
14342SOL     OW44466   5.724   7.869  10.271  0.4404 -0.2275  0.5244
14342SOL    HW144467   5.753   7.832  10.354 -0.4131 -0.2722  0.8117
14342SOL    HW244468   5.739   7.963  10.279  0.0453 -0.1911  0.8627
14343SOL     OW44469   7.736   7.665   9.306 -0.1805  0.2641 -0.2589
14343SOL    HW144470   7.754   7.719   9.229  0.9270  0.5057  0.1500
14343SOL    HW244471   7.815   7.674   9.360  0.1742 -1.9609 -0.2900
14344SOL     OW44472   6.969   5.612   1.202 -0.2343 -0.1423 -0.3561
14344SOL    HW144473   6.895   5.579   1.151  0.6431 -1.4573 -0.8336
14344SOL    HW244474   6.939   5.606   1.293 -0.9658  0.0072 -0.5756
14345SOL     OW44475   6.844   0.262   1.483 -0.3234 -0.0256  0.7122
14345SOL    HW144476   6.919   0.242   1.428 -0.0343 -2.7726  1.9403
14345SOL    HW244477   6.782   0.307   1.425  1.5817  0.8829 -0.7202
14346SOL     OW44478   1.131   5.281   4.840 -0.0925 -0.6494  0.2891
14346SOL    HW144479   1.137   5.197   4.884  1.9791 -0.3760  0.6455
14346SOL    HW244480   1.038   5.291   4.819 -0.6077 -2.3094  1.5807
14347SOL     OW44481   1.450   6.722   1.889 -0.2064 -0.1697 -0.6454
14347SOL    HW144482   1.435   6.627   1.884 -2.7046  0.0519  0.8271
14347SOL    HW244483   1.395   6.758   1.819  0.4194  0.2320 -0.9346
14348SOL     OW44484   5.576   0.721   7.195  0.2628 -0.1427  0.1777
14348SOL    HW144485   5.639   0.750   7.129 -0.3671 -1.3326 -0.9945
14348SOL    HW244486   5.519   0.660   7.148 -0.1848 -1.0578  1.8455
14349SOL     OW44487   7.074   7.212   8.757 -0.4342  0.0683 -0.2291
14349SOL    HW144488   7.000   7.168   8.799 -0.5718 -0.8948 -1.4205
14349SOL    HW244489   7.140   7.144   8.747  0.0954  0.5942 -0.3892
14350SOL     OW44490   1.694   3.947   1.279 -0.1317 -0.0689 -0.1875
14350SOL    HW144491   1.763   3.898   1.323 -1.0105  0.0150  1.3452
14350SOL    HW244492   1.642   3.880   1.234  0.1119 -0.2871 -0.1442
14351SOL     OW44493   1.127   7.586  12.064  0.1518  0.2034  0.1246
14351SOL    HW144494   1.037   7.576  12.031 -0.1513  0.0456  0.9833
14351SOL    HW244495   1.175   7.513  12.026 -0.2930 -0.2197  0.3722
14352SOL     OW44496   4.303   6.883   3.288 -0.7599 -0.1761 -0.3658
14352SOL    HW144497   4.372   6.923   3.340 -1.3055 -0.1051  0.3170
14352SOL    HW244498   4.222   6.919   3.323 -1.2741 -1.8775  0.3021
14353SOL     OW44499   5.561   6.586   0.991 -0.1439 -0.2273 -0.8897
14353SOL    HW144500   5.548   6.623   0.904 -1.2866  0.8803 -0.2786
14353SOL    HW244501   5.656   6.592   1.006  0.1336 -0.9016 -2.2261
14354SOL     OW44502   0.738   6.694   9.045 -0.1271  0.1199  0.1774
14354SOL    HW144503   0.679   6.721   9.115 -2.7445 -0.6393 -1.5954
14354SOL    HW244504   0.697   6.616   9.007  1.0135  0.6392 -2.3532
14355SOL     OW44505   5.659   3.884   1.326 -0.0747 -0.5110 -0.0235
14355SOL    HW144506   5.618   3.834   1.255 -2.0092 -0.7676  1.2133
14355SOL    HW244507   5.609   3.861   1.404  0.2555  1.8176  0.9532
14356SOL     OW44508   6.381   5.014   6.554  0.1309 -0.2971 -0.2776
14356SOL    HW144509   6.385   5.109   6.563 -1.5901  0.1035 -2.9057
14356SOL    HW244510   6.439   4.994   6.481 -1.2028 -0.9685 -1.1899
14357SOL     OW44511   0.160   5.400   7.485  0.3275  0.2113 -0.7206
14357SOL    HW144512   0.227   5.370   7.546  0.0569  0.0673 -0.4945
14357SOL    HW244513   0.154   5.494   7.499 -1.3264 -0.1160  1.0787
14358SOL     OW44514   1.246   2.823   5.814  0.1364 -0.3974  0.4338
14358SOL    HW144515   1.227   2.731   5.795  0.4349 -0.6862  1.4897
14358SOL    HW244516   1.268   2.825   5.907  0.5054  0.6885  0.3404
14359SOL     OW44517   4.287   1.209  11.980  0.1233  0.9475  0.1172
14359SOL    HW144518   4.330   1.138  11.932 -1.6371  0.2471 -0.5089
14359SOL    HW244519   4.239   1.257  11.912 -1.8069  0.3945  1.0311
14360SOL     OW44520   7.876   5.570   6.112  0.2484 -0.2865  0.5110
14360SOL    HW144521   7.909   5.652   6.149  1.6968 -0.3919 -0.4749
14360SOL    HW244522   7.786   5.590   6.086  0.7122  1.1196 -0.0969
14361SOL     OW44523   4.155   1.524   3.442 -0.8391 -1.1204  0.0076
14361SOL    HW144524   4.094   1.466   3.396 -0.3658 -0.0018 -2.2068
14361SOL    HW244525   4.117   1.611   3.433 -0.4014 -0.7772  1.2568
14362SOL     OW44526   6.690   2.276   4.541  0.4719 -0.0752  0.1074
14362SOL    HW144527   6.658   2.188   4.522  0.3313 -0.1678  0.7219
14362SOL    HW244528   6.743   2.300   4.465 -0.9311  0.0277 -0.8724
14363SOL     OW44529   3.142   3.732   0.677  0.3760  0.6045  0.0740
14363SOL    HW144530   3.167   3.777   0.597  0.2930  0.3703 -0.0850
14363SOL    HW244531   3.150   3.798   0.746  3.5025  0.0043  0.3977
14364SOL     OW44532   3.150   1.535   7.370  0.6327 -0.1518 -0.2114
14364SOL    HW144533   3.230   1.510   7.324 -0.3420 -1.0734 -1.4642
14364SOL    HW244534   3.163   1.627   7.392  1.7623 -0.1144 -0.9614
14365SOL     OW44535   0.914   3.108   3.032 -0.0328 -0.1185  0.0324
14365SOL    HW144536   0.829   3.090   2.992  0.0054  0.2195 -0.2100
14365SOL    HW244537   0.949   3.022   3.055 -0.5085 -0.2486  0.2771
14366SOL     OW44538   0.536   0.851   2.007 -0.0699  0.3927 -0.0554
14366SOL    HW144539   0.555   0.789   2.078 -0.4556  0.8694  0.4750
14366SOL    HW244540   0.559   0.804   1.927 -1.4971 -0.8997  0.2402
14367SOL     OW44541   6.280   6.951   1.097 -0.4322 -0.1852 -0.4289
14367SOL    HW144542   6.239   6.986   1.018 -1.0784 -0.0565 -0.0449
14367SOL    HW244543   6.372   6.942   1.074 -0.8527 -1.5843 -1.6873
14368SOL     OW44544   5.893   4.547   7.343 -0.1088 -0.1793  0.5508
14368SOL    HW144545   5.821   4.508   7.392 -0.7639  1.2076  0.7359
14368SOL    HW244546   5.898   4.495   7.263 -0.2376 -1.3084  1.2585
14369SOL     OW44547   3.264   2.883   0.338  0.0491  0.0478 -0.2797
14369SOL    HW144548   3.291   2.833   0.262 -0.8810  0.5188 -0.9472
14369SOL    HW244549   3.240   2.818   0.403  3.2707 -0.4199  0.6064
14370SOL     OW44550   3.210   4.059  12.400 -0.4335 -0.3439 -0.2685
14370SOL    HW144551   3.176   4.118  12.468  2.4152  0.7457  0.3411
14370SOL    HW244552   3.279   4.009  12.444  1.4171  0.3126 -2.2758
14371SOL     OW44553   5.052   6.701   2.552  0.1991  0.2144 -0.1360
14371SOL    HW144554   4.998   6.754   2.611  2.6364  0.3692  2.1214
14371SOL    HW244555   5.042   6.611   2.584 -1.0950 -0.2411 -1.6936
14372SOL     OW44556   0.219   0.601   1.679 -0.5525  0.4704 -0.0166
14372SOL    HW144557   0.157   0.640   1.616 -0.3669 -1.6875 -1.6539
14372SOL    HW244558   0.187   0.628   1.765 -2.9318  0.6043 -0.8821
14373SOL     OW44559   1.367   0.592   7.168 -0.1526  0.4912  0.5226
14373SOL    HW144560   1.367   0.613   7.075  0.9345  0.6838  0.5610
14373SOL    HW244561   1.365   0.677   7.211  1.7155  0.4819  0.6721
14374SOL     OW44562   2.126   1.639   7.464  0.1104  0.2253  0.3761
14374SOL    HW144563   2.210   1.593   7.457  0.5213  0.9247  0.6634
14374SOL    HW244564   2.065   1.583   7.416  0.6622 -0.4735  0.4671
14375SOL     OW44565   4.842   5.390  11.104 -0.2262 -0.1895 -0.1962
14375SOL    HW144566   4.789   5.454  11.056 -0.8779 -2.5261 -2.8576
14375SOL    HW244567   4.781   5.344  11.160 -0.5419 -0.9916 -1.1641
14376SOL     OW44568   4.433   3.889   5.476 -0.4077 -0.0273 -0.0815
14376SOL    HW144569   4.518   3.845   5.470  1.3733  3.2265 -1.0452
14376SOL    HW244570   4.394   3.877   5.390 -0.0891 -0.0328 -0.2278
14377SOL     OW44571   2.399   5.220   9.181 -0.2828 -0.1881 -0.1509
14377SOL    HW144572   2.453   5.283   9.132  0.2606 -0.3405  0.2432
14377SOL    HW244573   2.429   5.135   9.150  2.1168 -0.4353  2.4408
14378SOL     OW44574   1.115   2.979   0.887  0.0415  0.0052  0.7743
14378SOL    HW144575   1.169   3.050   0.923  1.9238 -0.3214 -1.2252
14378SOL    HW244576   1.178   2.912   0.862 -1.3386 -0.6499 -1.1586
14379SOL     OW44577   6.934   4.347   8.045 -0.4387  0.7832 -0.3939
14379SOL    HW144578   6.856   4.402   8.043 -0.3249  0.9816  0.4424
14379SOL    HW244579   7.007   4.409   8.050 -0.2733  0.5763 -0.2303
14380SOL     OW44580   3.638   1.854   6.012  0.1965 -0.1088 -0.1357
14380SOL    HW144581   3.658   1.943   5.984 -0.6081  0.2797  0.4725
14380SOL    HW244582   3.642   1.802   5.932  1.9443  0.2242 -0.3003
14381SOL     OW44583   3.806   6.393   8.750  0.1464 -0.1295 -0.1496
14381SOL    HW144584   3.859   6.347   8.816 -1.2324 -0.2427  0.9184
14381SOL    HW244585   3.844   6.366   8.666  1.7829 -0.1839  0.5750
14382SOL     OW44586   7.404   0.910   4.536  0.0870  0.3578  0.6721
14382SOL    HW144587   7.499   0.919   4.527 -0.0873  2.3719  0.1254
14382SOL    HW244588   7.371   0.913   4.446 -0.5076  0.0911  0.8760
14383SOL     OW44589   6.512   1.300   8.862  0.5376 -0.2957  0.1522
14383SOL    HW144590   6.552   1.270   8.781 -2.6918 -2.0245 -0.9961
14383SOL    HW244591   6.564   1.260   8.931  2.0827 -0.5818 -1.1219
14384SOL     OW44592   4.118   6.330   6.185  0.4387 -0.4663  0.3897
14384SOL    HW144593   4.191   6.382   6.153 -0.5686 -0.4104 -2.0529
14384SOL    HW244594   4.151   6.240   6.185  1.0228 -0.2641  1.0215
14385SOL     OW44595   7.955   7.562   6.775  0.0039 -0.1465  0.4154
14385SOL    HW144596   8.010   7.520   6.709  0.7757  0.0330  0.9246
14385SOL    HW244597   7.890   7.611   6.725  0.1017 -0.6395 -0.1969
14386SOL     OW44598   6.178   2.076   5.819 -0.2298  0.0727 -0.0421
14386SOL    HW144599   6.256   2.020   5.817 -0.2041  0.0701  0.7735
14386SOL    HW244600   6.143   2.065   5.907 -1.5749 -0.4802 -0.6249
14387SOL     OW44601   5.650   5.516   3.359  0.3525  0.3286  0.4311
14387SOL    HW144602   5.718   5.540   3.421  2.1904  0.3610 -1.4931
14387SOL    HW244603   5.594   5.455   3.407  0.2768  2.1326  2.8292
14388SOL     OW44604   1.043   3.069  10.083  0.2208 -0.3281 -0.2380
14388SOL    HW144605   1.087   3.004  10.028 -1.3024  0.4232 -2.5067
14388SOL    HW244606   1.114   3.118  10.125  1.6568  0.5095 -3.3404
14389SOL     OW44607   5.273   4.193   3.831  0.5041 -0.5487  0.6469
14389SOL    HW144608   5.239   4.254   3.897 -2.4571  0.2298 -1.4042
14389SOL    HW244609   5.327   4.248   3.774  0.8274 -0.6506  0.8503
14390SOL     OW44610   1.122   1.520   9.145  0.6412  0.0230  0.4710
14390SOL    HW144611   1.140   1.584   9.076 -0.1665 -0.6281 -0.3700
14390SOL    HW244612   1.204   1.515   9.195  1.5711 -0.1903 -1.0122
14391SOL     OW44613   6.198   0.914  10.396 -0.3220  0.3304  0.5684
14391SOL    HW144614   6.146   0.959  10.463 -0.9670 -0.8053  0.8573
14391SOL    HW244615   6.211   0.826  10.431 -0.1357 -0.0850 -0.5180
14392SOL     OW44616   0.484   2.647  10.327  0.2174 -0.4115  0.2761
14392SOL    HW144617   0.389   2.633  10.322 -0.0834  0.6448  2.2041
14392SOL    HW244618   0.514   2.584  10.392  0.9671 -1.1495 -0.7508
14393SOL     OW44619   2.726   5.452   0.822 -0.3624  0.3587 -0.1240
14393SOL    HW144620   2.641   5.410   0.810 -0.5471  0.5665  0.4223
14393SOL    HW244621   2.751   5.480   0.734 -0.5492 -0.2915 -0.3886
14394SOL     OW44622   6.838   6.449   4.675 -0.3935  0.2784  0.6233
14394SOL    HW144623   6.751   6.417   4.697 -0.2409 -0.3600  0.3102
14394SOL    HW244624   6.888   6.371   4.651 -0.7840  0.9057 -2.8512
14395SOL     OW44625   5.108   6.741   3.023 -0.2287  0.5179  0.1349
14395SOL    HW144626   5.086   6.756   2.931  0.2988  1.5845  0.1682
14395SOL    HW244627   5.101   6.828   3.064  1.4200  0.4260  0.6866
14396SOL     OW44628   3.529   0.592   2.080  0.6882  0.2014 -0.9042
14396SOL    HW144629   3.516   0.499   2.095 -0.9987  0.3420 -1.3354
14396SOL    HW244630   3.592   0.597   2.009  2.1573 -0.5657  0.2973
14397SOL     OW44631   2.658   2.303  12.361 -0.2821  0.2238 -0.3605
14397SOL    HW144632   2.622   2.346  12.284 -0.3280 -0.5791 -0.8015
14397SOL    HW244633   2.611   2.220  12.366 -0.0327  0.1180  0.3287
14398SOL     OW44634   3.315   4.184   0.181 -0.1821 -0.0459  0.5900
14398SOL    HW144635   3.366   4.250   0.134 -1.7788  1.1998  0.5428
14398SOL    HW244636   3.326   4.207   0.274 -1.2733  0.7203  0.5430
14399SOL     OW44637   6.083   0.350  12.275 -0.2102  0.6189  0.3439
14399SOL    HW144638   6.177   0.365  12.264  0.2835 -0.6696  2.3122
14399SOL    HW244639   6.042   0.412  12.214  1.8511  2.7114  0.9294
14400SOL     OW44640   0.119   0.349   6.290  0.9349 -0.2754  0.2766
14400SOL    HW144641   0.166   0.369   6.209  0.5250  0.2175  0.1559
14400SOL    HW244642   0.051   0.287   6.264 -0.4045  1.2809 -0.1463
14401SOL     OW44643   4.774   7.604  12.313  0.5645 -0.3519  0.6129
14401SOL    HW144644   4.813   7.555  12.241  0.2525 -0.7417  0.7088
14401SOL    HW244645   4.695   7.644  12.275  0.8785  0.1737  0.5040
14402SOL     OW44646   2.237   1.042   1.831  0.1317  0.1495  0.9865
14402SOL    HW144647   2.222   0.951   1.806 -1.2969  0.4714  0.5273
14402SOL    HW244648   2.295   1.038   1.907  0.4086 -1.1163  0.7191
14403SOL     OW44649   0.094   3.721  11.454 -0.3626 -0.6771  0.8794
14403SOL    HW144650   0.151   3.730  11.378 -1.8631  0.9051 -0.1314
14403SOL    HW244651   0.118   3.793  11.512 -1.9615  0.6513 -0.0357
14404SOL     OW44652   1.528   4.345   9.248  0.0036 -0.2310 -0.1578
14404SOL    HW144653   1.504   4.293   9.325  2.7363 -0.1291  0.8543
14404SOL    HW244654   1.457   4.408   9.239 -0.2394 -0.0168  2.5208
14405SOL     OW44655   4.722   4.575   3.734  0.5899 -0.2223 -0.2252
14405SOL    HW144656   4.685   4.657   3.765  1.3893 -0.2258  0.7526
14405SOL    HW244657   4.803   4.564   3.783 -0.3643 -2.4727  1.0135
14406SOL     OW44658   0.561   3.451   3.376  0.2605  0.0070 -0.1988
14406SOL    HW144659   0.611   3.370   3.374  0.3619  0.0524  0.4317
14406SOL    HW244660   0.469   3.423   3.374  0.2826 -0.1562  0.8582
14407SOL     OW44661   6.662   5.438  12.414 -0.9347  0.2499 -0.3525
14407SOL    HW144662   6.589   5.488  12.451  0.7815  0.9956  2.2548
14407SOL    HW244663   6.661   5.355  12.462  1.1347  1.1034  1.3276
14408SOL     OW44664   2.111   6.936  10.271 -0.6542  0.0307 -0.2654
14408SOL    HW144665   2.064   6.907  10.193  0.6514 -0.3707 -0.9434
14408SOL    HW244666   2.184   6.989  10.237  0.3518 -0.7386  0.6254
14409SOL     OW44667   0.380   2.459   2.721 -0.2652  0.3295  0.0008
14409SOL    HW144668   0.285   2.472   2.721 -0.3485 -0.2506 -0.2597
14409SOL    HW244669   0.413   2.520   2.787 -1.1439 -1.7809  2.5472
14410SOL     OW44670   2.007   5.949   8.074 -0.0468  0.0310 -0.6732
14410SOL    HW144671   2.067   6.012   8.111  0.2270  0.1576 -1.3199
14410SOL    HW244672   2.041   5.931   7.986 -1.4959  0.8755 -1.4588
14411SOL     OW44673   3.577   1.210  11.074 -0.2037 -1.2285 -0.2101
14411SOL    HW144674   3.660   1.242  11.108 -0.5480 -0.1311 -0.3714
14411SOL    HW244675   3.581   1.115  11.087  1.3357 -1.2705 -0.8065
14412SOL     OW44676   0.313   7.246   0.588  0.0001  0.0564  0.1129
14412SOL    HW144677   0.286   7.179   0.525 -1.9013 -1.4611  2.3775
14412SOL    HW244678   0.407   7.231   0.599 -0.0544 -1.0732 -0.7266
14413SOL     OW44679   1.430   3.658   8.782  0.5253 -0.5595  0.2151
14413SOL    HW144680   1.377   3.690   8.710  2.3752  0.4809 -0.7490
14413SOL    HW244681   1.373   3.596   8.829 -1.7465  1.0364 -0.3081
14414SOL     OW44682   1.144   5.245   1.198  0.0593  0.3870  0.4420
14414SOL    HW144683   1.107   5.158   1.213 -1.0643  0.6881 -0.4084
14414SOL    HW244684   1.069   5.304   1.201  0.6421  1.1894 -0.1070
14415SOL     OW44685   0.490   0.346   9.458  0.5933  0.0627 -0.0193
14415SOL    HW144686   0.511   0.331   9.550  0.6376  0.0371 -0.0338
14415SOL    HW244687   0.455   0.263   9.427 -1.8569  0.7691  0.6268
14416SOL     OW44688   0.350   7.580   8.622  0.5023 -0.4754 -0.5665
14416SOL    HW144689   0.258   7.599   8.606  0.3787 -1.0163 -0.5132
14416SOL    HW244690   0.393   7.665   8.620 -0.1719 -0.1008  0.5411
14417SOL     OW44691   0.964   7.830   1.629 -0.0835 -0.7363  0.8318
14417SOL    HW144692   1.041   7.797   1.676  1.5424  2.1105  0.4123
14417SOL    HW244693   0.958   7.922   1.654 -1.3207 -0.0250 -1.7160
14418SOL     OW44694   2.805   5.571   8.397 -0.4346  0.6290  0.3667
14418SOL    HW144695   2.751   5.592   8.321  0.1237 -0.8851 -0.4998
14418SOL    HW244696   2.891   5.607   8.376 -0.1108 -0.3571 -0.0250
14419SOL     OW44697   1.647   4.807   8.599 -0.2822  0.1387  0.5811
14419SOL    HW144698   1.686   4.726   8.631  0.9666  1.1771  1.7941
14419SOL    HW244699   1.637   4.794   8.505  0.3321 -1.2307  0.6990
14420SOL     OW44700   3.759   2.572  10.563 -0.0546 -0.1008  0.3796
14420SOL    HW144701   3.790   2.553  10.474 -0.1506 -0.5082  0.4311
14420SOL    HW244702   3.808   2.512  10.619  0.4296  0.5584  0.6725
14421SOL     OW44703   2.678   7.183   0.244 -0.3217  0.0790 -0.5542
14421SOL    HW144704   2.646   7.130   0.317 -0.9085  2.6605  1.1848
14421SOL    HW244705   2.598   7.211   0.198 -0.1835  1.2842 -0.0791
14422SOL     OW44706   0.840   4.657   5.511 -0.1910  0.0189 -0.0664
14422SOL    HW144707   0.747   4.671   5.529  0.1038 -0.9491  2.5192
14422SOL    HW244708   0.885   4.689   5.588  1.6779  0.4940 -1.2835
14423SOL     OW44709   0.877   5.615   4.306 -0.3099  0.0576  0.2666
14423SOL    HW144710   0.826   5.682   4.352 -0.0430  1.5013 -1.4273
14423SOL    HW244711   0.814   5.570   4.250 -0.3644 -0.7016  0.9135
14424SOL     OW44712   7.098   3.189  12.027 -0.0023 -0.5644  0.2078
14424SOL    HW144713   7.109   3.137  11.948  1.5801 -0.1251  0.1051
14424SOL    HW244714   7.134   3.275  12.004  0.6026 -0.4728  1.4333
14425SOL     OW44715   3.371   6.515   6.666  0.6532  0.0614 -0.1048
14425SOL    HW144716   3.296   6.531   6.723  1.0574  3.6382 -0.3898
14425SOL    HW244717   3.333   6.479   6.586 -0.5906  0.4457  0.2966
14426SOL     OW44718   1.002   4.468   7.333  0.1194  0.2578 -0.3508
14426SOL    HW144719   1.060   4.408   7.285  0.1833  0.0181  0.0228
14426SOL    HW244720   1.040   4.473   7.420 -0.8340 -0.4807  0.1195
14427SOL     OW44721   6.168   2.241   3.398  0.2599 -0.6184  0.7887
14427SOL    HW144722   6.194   2.228   3.489  0.5501 -1.1873  0.6305
14427SOL    HW244723   6.072   2.242   3.400  0.2746  0.7186  1.2731
14428SOL     OW44724   4.152   0.551  12.380 -0.1608  0.5572 -0.1195
14428SOL    HW144725   4.166   0.469  12.428 -0.3184  1.7296  2.0515
14428SOL    HW244726   4.164   0.527  12.288  0.2008 -1.8054  0.4752
14429SOL     OW44727   0.547   7.926   7.420  0.0344  0.5984 -0.4783
14429SOL    HW144728   0.612   7.928   7.350  1.0688  2.6477  0.4565
14429SOL    HW244729   0.488   7.999   7.402  0.1849  1.0223  0.6127
14430SOL     OW44730   6.260   4.242   9.085  0.0398 -0.2145  0.4282
14430SOL    HW144731   6.275   4.248   8.991  0.7720  0.8859  0.5886
14430SOL    HW244732   6.301   4.159   9.111  0.5343 -0.1470 -0.1078
14431SOL     OW44733   2.864   0.490   6.913 -0.0854 -0.0209  0.1504
14431SOL    HW144734   2.931   0.465   6.977 -0.8974  1.6818  1.7900
14431SOL    HW244735   2.893   0.451   6.831  1.1118 -2.1557  1.5011
14432SOL     OW44736   5.052   6.681   3.355  0.3383  0.0560  0.9344
14432SOL    HW144737   5.022   6.771   3.344  0.5135 -0.0255 -0.2788
14432SOL    HW244738   5.148   6.688   3.362  0.3930 -0.0764  0.3406
14433SOL     OW44739   0.510   7.748  11.001 -0.7626  0.1481  0.1058
14433SOL    HW144740   0.525   7.666  10.956 -0.9311  0.7746 -1.1325
14433SOL    HW244741   0.569   7.746  11.076 -0.3192 -0.8192 -0.2566
14434SOL     OW44742   7.650   0.287   2.790  0.5268 -0.1543  0.5400
14434SOL    HW144743   7.565   0.253   2.817 -0.0981  1.7058  1.1316
14434SOL    HW244744   7.630   0.346   2.717  1.4652 -0.5590 -0.0577
14435SOL     OW44745   6.291   7.708   4.461  0.2646 -0.1112  0.0609
14435SOL    HW144746   6.205   7.691   4.499  0.0644 -0.9668 -0.7571
14435SOL    HW244747   6.308   7.800   4.481 -0.8385  0.0628  0.2344
14436SOL     OW44748   5.058   3.346   6.193  0.0769  0.2134 -0.0090
14436SOL    HW144749   5.130   3.284   6.207 -0.4575 -0.9997 -2.0913
14436SOL    HW244750   5.047   3.390   6.277 -0.3395 -3.4140  2.0581
14437SOL     OW44751   4.857   2.040   9.385 -0.1490  0.5074 -0.6401
14437SOL    HW144752   4.798   2.079   9.320 -0.6754  3.2506  1.3116
14437SOL    HW244753   4.833   2.082   9.467  1.5749 -1.6343  1.0821
14438SOL     OW44754   7.552   4.733   0.112  0.2624 -0.0725  0.5486
14438SOL    HW144755   7.472   4.681   0.103  0.0854  0.5086 -2.0331
14438SOL    HW244756   7.622   4.672   0.093  0.2625 -0.0499  0.4756
14439SOL     OW44757   3.162   3.754   5.317 -0.7047 -0.1233 -0.3384
14439SOL    HW144758   3.256   3.758   5.302 -0.9742  0.5948 -2.0956
14439SOL    HW244759   3.149   3.805   5.397  0.2265  1.3960 -1.1020
14440SOL     OW44760   3.462   2.958   0.050  0.2448  0.1889 -0.2239
14440SOL    HW144761   3.429   2.878   0.091  1.3435 -0.1637 -0.0006
14440SOL    HW244762   3.554   2.939   0.031  0.6500  1.5579  0.2606
14441SOL     OW44763   1.704   6.207   3.709 -0.1541 -0.0470 -0.3855
14441SOL    HW144764   1.696   6.126   3.658  2.3467  1.2548 -3.0949
14441SOL    HW244765   1.627   6.258   3.685 -1.8879 -1.5951  1.5365
14442SOL     OW44766   1.418   5.707   7.132 -0.4885  0.1146  0.6580
14442SOL    HW144767   1.327   5.679   7.139 -0.7657  1.1557  1.7362
14442SOL    HW244768   1.461   5.666   7.208 -0.2573  0.2859  0.6207
14443SOL     OW44769   7.759   6.456   6.777 -0.2612 -0.8086 -0.1514
14443SOL    HW144770   7.749   6.377   6.831 -0.7324 -0.4034  0.3662
14443SOL    HW244771   7.774   6.527   6.840 -1.2925 -0.2521 -0.5116
14444SOL     OW44772   1.936   3.225  12.281  0.0238  0.1081 -0.7456
14444SOL    HW144773   1.933   3.258  12.371  0.2088 -0.9690 -0.3253
14444SOL    HW244774   1.974   3.138  12.290 -2.0033 -0.9156 -1.6114
14445SOL     OW44775   1.059   4.571   4.774  0.6311  0.2013  0.4609
14445SOL    HW144776   1.100   4.513   4.838 -0.1540  1.1631  1.8771
14445SOL    HW244777   1.012   4.636   4.826  1.9444  2.4887 -1.0521
14446SOL     OW44778   6.958   6.655   2.186 -0.3945  0.0319  0.3723
14446SOL    HW144779   6.928   6.635   2.097  0.3399 -0.3325  0.2010
14446SOL    HW244780   6.892   6.614   2.243 -0.4101 -0.4721 -0.0023
14447SOL     OW44781   3.698   1.028   8.789 -0.2853  0.2870  0.1667
14447SOL    HW144782   3.690   1.105   8.845 -0.3255  0.5936 -0.2555
14447SOL    HW244783   3.696   0.954   8.849  2.0255  0.6829  0.8198
14448SOL     OW44784   6.287   1.478   9.839  0.4038  0.0686  0.1302
14448SOL    HW144785   6.325   1.561   9.811 -0.2580  0.0610 -0.8526
14448SOL    HW244786   6.349   1.412   9.809  0.7982  0.1963  0.6705
14449SOL     OW44787   1.384   2.342   4.777 -0.3966 -0.6537 -0.5939
14449SOL    HW144788   1.449   2.401   4.815  0.2767 -1.4054 -0.5538
14449SOL    HW244789   1.431   2.298   4.706 -1.1443 -0.5123 -1.1867
14450SOL     OW44790   1.711   5.949  11.189 -0.0128 -0.0402 -0.2632
14450SOL    HW144791   1.782   5.979  11.132  0.7222 -0.6163  0.3226
14450SOL    HW244792   1.756   5.903  11.260 -0.8259  1.6723  1.4266
14451SOL     OW44793   7.392   1.845   2.429 -0.1990 -0.1266 -0.0236
14451SOL    HW144794   7.424   1.888   2.350 -3.0414  0.2267 -1.1090
14451SOL    HW244795   7.313   1.798   2.401  1.1528 -3.8500  1.6975
14452SOL     OW44796   7.758   2.404   5.859 -0.0488  0.0947 -0.6377
14452SOL    HW144797   7.839   2.389   5.908  0.0422 -1.1680 -1.1264
14452SOL    HW244798   7.689   2.372   5.917 -0.0754 -0.0659 -0.7585
14453SOL     OW44799   0.728   0.001   1.345  1.2857 -0.4910 -0.7100
14453SOL    HW144800   0.783  -0.060   1.395 -1.0295 -2.0777  0.0508
14453SOL    HW244801   0.682  -0.055   1.282 -1.6020  0.2288  0.6130
14454SOL     OW44802   0.163   6.478  10.818  0.0108 -0.2814 -0.9455
14454SOL    HW144803   0.240   6.432  10.850 -0.1086 -0.5793 -1.0845
14454SOL    HW244804   0.113   6.498  10.897  0.7547  0.8906 -0.7399
14455SOL     OW44805   5.133   6.454   4.187  0.1430  0.1454 -0.6530
14455SOL    HW144806   5.068   6.415   4.245 -0.4233  0.4861 -1.0441
14455SOL    HW244807   5.130   6.401   4.108 -0.0395  0.4777 -0.8719
14456SOL     OW44808   1.493   3.733   8.117  0.3990 -0.0269 -0.1966
14456SOL    HW144809   1.573   3.737   8.170  0.7632 -0.0112 -0.7389
14456SOL    HW244810   1.525   3.727   8.027 -0.1990 -1.6923 -0.3172
14457SOL     OW44811   4.965   1.368  10.625  0.3990 -0.5337 -0.0425
14457SOL    HW144812   5.034   1.387  10.562 -0.5102 -1.1785 -1.2751
14457SOL    HW244813   4.883   1.378  10.576 -0.3023 -1.9703  0.7439
14458SOL     OW44814   4.899   4.569   4.399 -0.1806 -0.0715  0.1282
14458SOL    HW144815   4.985   4.562   4.442  0.9328  0.7746 -1.8184
14458SOL    HW244816   4.843   4.609   4.465  0.9414 -0.5396  1.4188
14459SOL     OW44817   3.201   3.382   7.334  0.3095  0.1437  0.4938
14459SOL    HW144818   3.203   3.416   7.244  0.3621 -1.7446 -0.2534
14459SOL    HW244819   3.291   3.354   7.352  0.1358 -0.1945  0.8532
14460SOL     OW44820   4.765   2.925   1.531 -0.1973  0.3177 -0.4664
14460SOL    HW144821   4.733   2.907   1.442  1.8602  0.4513 -1.2793
14460SOL    HW244822   4.795   2.839   1.562 -0.5818  0.3403 -0.0304
14461SOL     OW44823   1.229   6.672   9.533 -0.1294  0.0027  0.2660
14461SOL    HW144824   1.324   6.657   9.530 -0.4288 -2.1589 -0.2482
14461SOL    HW244825   1.197   6.607   9.596 -1.5048 -0.9338 -1.3225
14462SOL     OW44826   4.437   0.547   2.255 -0.0461 -0.0780 -0.4546
14462SOL    HW144827   4.502   0.585   2.196 -1.6747  1.9819 -1.0295
14462SOL    HW244828   4.477   0.465   2.285  2.5141  0.7891 -1.2582
14463SOL     OW44829   5.047   0.808   5.433 -0.1734  0.4918 -0.9546
14463SOL    HW144830   5.087   0.724   5.455 -1.5472  0.2289  0.7386
14463SOL    HW244831   5.081   0.828   5.346  2.0847 -0.6199 -0.4119
14464SOL     OW44832   3.427   0.135   8.527  0.6042 -0.3476 -0.3043
14464SOL    HW144833   3.333   0.130   8.542  0.8745 -2.2774  1.2089
14464SOL    HW244834   3.453   0.220   8.561 -0.7016  0.6616 -1.7118
14465SOL     OW44835   4.966   7.197   0.567 -0.2965  0.1680 -0.1581
14465SOL    HW144836   5.054   7.232   0.580 -0.1106  0.0926 -1.1286
14465SOL    HW244837   4.978   7.102   0.570 -0.9662  0.0705  3.5839
14466SOL     OW44838   1.313   1.674   6.210  0.0567 -0.1943 -0.4948
14466SOL    HW144839   1.380   1.659   6.276  1.0025 -0.8941 -1.5977
14466SOL    HW244840   1.350   1.641   6.128 -0.3429  2.2469 -1.7813
14467SOL     OW44841   7.337   6.285   9.944 -0.3254  0.2456 -0.0494
14467SOL    HW144842   7.259   6.279   9.890  0.0305  0.3057 -0.5735
14467SOL    HW244843   7.306   6.320  10.027 -0.8687  0.1840 -0.2233
14468SOL     OW44844   2.659   0.686   8.128  0.0921  0.2255 -0.8571
14468SOL    HW144845   2.653   0.645   8.042 -1.5670 -1.8472  0.1369
14468SOL    HW244846   2.693   0.616   8.185  0.6243  1.3739  0.2864
14469SOL     OW44847   7.360   3.526   4.195  1.3565 -0.0345  0.1331
14469SOL    HW144848   7.426   3.577   4.148  0.5199 -0.3020 -1.4224
14469SOL    HW244849   7.334   3.458   4.133 -0.7793  0.4268  0.4459
14470SOL     OW44850   1.177   0.948  12.311 -0.2695 -0.4000  0.0879
14470SOL    HW144851   1.147   0.944  12.220  0.7425  0.0411 -0.2840
14470SOL    HW244852   1.196   0.857  12.334  0.0332 -0.4527 -0.3501
14471SOL     OW44853   2.107   5.880   7.362  0.4887 -0.3746 -0.1612
14471SOL    HW144854   2.038   5.849   7.303 -0.0405 -2.0492  1.2734
14471SOL    HW244855   2.091   5.974   7.371  0.0985 -0.2247 -2.0039
14472SOL     OW44856   1.162   4.581   9.423 -0.5987  0.5069  0.5738
14472SOL    HW144857   1.198   4.646   9.484 -0.3880  0.4871  0.4720
14472SOL    HW244858   1.173   4.497   9.467 -1.2818  0.5823  0.8972
14473SOL     OW44859   6.260   4.937   4.201  0.1308 -0.0727 -0.1747
14473SOL    HW144860   6.353   4.936   4.224  0.0681  0.2432  0.0958
14473SOL    HW244861   6.244   5.026   4.169 -0.1432 -0.0428  0.0446
14474SOL     OW44862   2.580   6.391   6.922  0.2428 -0.5072 -0.1178
14474SOL    HW144863   2.507   6.355   6.973 -0.2361 -0.4158 -0.7185
14474SOL    HW244864   2.595   6.326   6.853  1.8739 -1.3570  0.9808
14475SOL     OW44865   4.134   2.395  10.797  0.1844 -0.1654 -0.1709
14475SOL    HW144866   4.211   2.437  10.760  0.4642  0.5571  1.1619
14475SOL    HW244867   4.100   2.341  10.726 -1.2566  3.6001 -2.6620
14476SOL     OW44868   0.093   7.758   1.650 -0.0243 -0.6886  0.3486
14476SOL    HW144869   0.078   7.728   1.739 -2.6722  1.1250  0.6259
14476SOL    HW244870   0.123   7.848   1.660  0.6602 -0.7897 -0.6152
14477SOL     OW44871   4.049   7.043   4.514  0.0595  0.6318 -0.7102
14477SOL    HW144872   4.016   6.960   4.480  2.1262 -0.2240 -0.7569
14477SOL    HW244873   4.094   7.083   4.440 -2.1438  2.5827 -1.1332
14478SOL     OW44874   6.690   6.505   6.319  0.1698  0.3874 -0.0898
14478SOL    HW144875   6.631   6.568   6.278  0.6922 -0.5799 -2.4984
14478SOL    HW244876   6.635   6.459   6.383 -1.4536  0.2187 -1.5193
14479SOL     OW44877   7.403   3.839   6.436 -0.5626 -0.0272  0.3545
14479SOL    HW144878   7.390   3.933   6.450  0.6232  0.3440 -0.7910
14479SOL    HW244879   7.349   3.819   6.359 -0.6818 -0.2467  0.4953
14480SOL     OW44880   6.510   3.783   7.498 -0.2374 -0.1072 -0.3206
14480SOL    HW144881   6.554   3.763   7.416  1.3068  1.8463 -0.0501
14480SOL    HW244882   6.481   3.874   7.489 -1.1991 -0.2622  0.8277
14481SOL     OW44883   6.600   5.277   9.925  0.6537 -0.0348 -0.1980
14481SOL    HW144884   6.563   5.189   9.923  1.6828 -0.5295  0.9625
14481SOL    HW244885   6.679   5.271   9.871 -0.2704  0.7075 -1.6969
14482SOL     OW44886   6.232   4.003   7.232 -0.2304 -0.2173 -0.3027
14482SOL    HW144887   6.249   3.965   7.145  1.4697  1.1575 -0.6216
14482SOL    HW244888   6.283   4.084   7.233 -3.5913  2.0701  0.3961
14483SOL     OW44889   2.123   5.807   7.820  0.2626 -0.4765 -0.6329
14483SOL    HW144890   2.091   5.832   7.734 -2.3950  0.0812  0.4370
14483SOL    HW244891   2.061   5.740   7.850  0.5924  0.0004  1.2113
14484SOL     OW44892   7.401   7.785   6.329 -0.1738 -0.0863 -0.0872
14484SOL    HW144893   7.313   7.760   6.358  0.2633 -1.3346  0.2485
14484SOL    HW244894   7.409   7.877   6.353 -1.2624 -0.0434  0.1763
14485SOL     OW44895   4.284   4.127   5.330  0.1447  0.5399 -0.1062
14485SOL    HW144896   4.199   4.139   5.289  0.3711  0.2651 -0.6759
14485SOL    HW244897   4.279   4.041   5.371 -0.6164  1.4399  1.8189
14486SOL     OW44898   5.873   7.340  11.985 -0.3202 -0.5804  0.2866
14486SOL    HW144899   5.893   7.290  11.906 -0.0580 -1.7373  1.0683
14486SOL    HW244900   5.954   7.390  12.002 -0.9908  1.1640 -1.1928
14487SOL     OW44901   2.365   2.989   3.828 -0.0427  0.0873 -0.2084
14487SOL    HW144902   2.297   3.025   3.771  0.6475  1.5790 -0.1247
14487SOL    HW244903   2.447   3.025   3.795  0.4219  0.6444  1.4291
14488SOL     OW44904   0.709   4.910   4.835 -0.4758 -0.2313 -0.3252
14488SOL    HW144905   0.794   4.952   4.828 -1.0830  1.4565  1.4460
14488SOL    HW244906   0.724   4.834   4.891 -0.1803  0.2502  0.2537
14489SOL     OW44907   1.250   7.713   7.958  0.4467  0.1574 -0.1320
14489SOL    HW144908   1.297   7.631   7.942  1.6935  0.9421 -0.6042
14489SOL    HW244909   1.318   7.775   7.983 -0.4052  1.2084 -0.3550
14490SOL     OW44910   7.793   6.168   3.355 -0.3478 -0.1748  0.2627
14490SOL    HW144911   7.705   6.203   3.340  0.0538  1.0894  0.7324
14490SOL    HW244912   7.827   6.149   3.268 -0.4462  0.9833 -0.0449
14491SOL     OW44913   7.653   4.923   6.385  0.1895  0.1603  0.4963
14491SOL    HW144914   7.695   4.968   6.312 -0.8695 -3.3713 -2.6065
14491SOL    HW244915   7.725   4.892   6.440  1.7670 -2.7636 -2.7940
14492SOL     OW44916   3.890   5.787   5.770  1.2702 -0.3258  0.5731
14492SOL    HW144917   3.935   5.834   5.700 -1.7103 -0.8780 -1.9465
14492SOL    HW244918   3.847   5.856   5.821  1.1985 -0.0376  0.1288
14493SOL     OW44919   2.512   1.374   9.963 -0.2483 -0.2773  0.2394
14493SOL    HW144920   2.547   1.411  10.044  0.4001 -0.9692  0.2862
14493SOL    HW244921   2.587   1.374   9.903 -0.1467 -1.8026  0.3419
14494SOL     OW44922   0.915   3.641  11.037  0.2024  0.5031  0.5161
14494SOL    HW144923   0.868   3.616  10.958  0.2906  0.9788  0.3123
14494SOL    HW244924   1.000   3.672  11.006  0.3186  0.4878  0.8144
14495SOL     OW44925   6.379   1.098   7.393  0.3397  0.5481 -0.4250
14495SOL    HW144926   6.432   1.051   7.457 -1.0572  0.2064  0.5431
14495SOL    HW244927   6.413   1.070   7.308  0.7851 -0.7611  0.1482
14496SOL     OW44928   3.260   2.576   3.460 -0.4827 -0.1847  0.4111
14496SOL    HW144929   3.279   2.579   3.367 -0.8254  0.8340  0.3676
14496SOL    HW244930   3.269   2.483   3.483  0.7644 -0.2821 -0.3824
14497SOL     OW44931   3.442   6.115   7.058  0.0185  0.3212  0.3152
14497SOL    HW144932   3.446   6.079   6.970  3.0707  0.3769  0.3396
14497SOL    HW244933   3.522   6.167   7.067 -0.8318  1.3799  2.6859
14498SOL     OW44934   2.798   5.161   2.236 -0.0036 -0.3380 -0.1188
14498SOL    HW144935   2.860   5.228   2.209 -2.1047  2.5274  1.6084
14498SOL    HW244936   2.830   5.132   2.322  0.1475 -0.4873 -0.2266
14499SOL     OW44937   2.771   2.257   1.785 -0.6259 -0.4177 -0.1073
14499SOL    HW144938   2.731   2.279   1.701 -1.9277  0.3723  0.6888
14499SOL    HW244939   2.845   2.318   1.793 -0.8455 -0.1048 -0.4211
14500SOL     OW44940   5.547   6.866  10.366 -0.3060 -0.6325  0.2465
14500SOL    HW144941   5.496   6.806  10.312  1.7025 -2.7941  0.6027
14500SOL    HW244942   5.568   6.816  10.445 -1.2838  1.6972  2.1156
14501SOL     OW44943   0.467   7.677  12.425  0.1859  0.3207  0.5079
14501SOL    HW144944   0.453   7.659  12.518 -0.0603 -0.6443  0.2909
14501SOL    HW244945   0.556   7.714  12.421  0.3738 -0.0601  1.0714
14502SOL     OW44946   3.857   6.334   4.987  0.5093  0.4600 -0.3820
14502SOL    HW144947   3.924   6.350   5.053 -0.8494  0.1094  1.1624
14502SOL    HW244948   3.900   6.353   4.904  2.8550 -0.8757  0.4307
14503SOL     OW44949   5.932   7.245   6.076  0.3352 -0.3906  0.3600
14503SOL    HW144950   5.913   7.264   5.985 -0.5269  0.8262  0.7771
14503SOL    HW244951   5.974   7.159   6.074 -0.0821 -0.5844 -1.1251
14504SOL     OW44952   6.059   0.431   6.748 -0.1007  0.1356  0.1315
14504SOL    HW144953   6.086   0.440   6.656 -1.4978  2.6104 -0.1260
14504SOL    HW244954   6.007   0.351   6.749 -1.1915  0.7503 -1.5874
14505SOL     OW44955   0.148   2.247   8.567 -0.2606 -0.2749 -0.1879
14505SOL    HW144956   0.244   2.242   8.570 -0.3009 -0.5214  0.9186
14505SOL    HW244957   0.129   2.260   8.474  0.8512 -0.0458 -0.4077
14506SOL     OW44958   5.449   1.744   3.937 -0.0710  0.2712 -0.4059
14506SOL    HW144959   5.459   1.811   4.005  1.8974 -0.2621 -0.1202
14506SOL    HW244960   5.417   1.792   3.861 -0.7810  1.1525  0.4221
14507SOL     OW44961   7.715   3.541   1.838 -0.4683 -0.0521 -0.4882
14507SOL    HW144962   7.720   3.602   1.764  0.4159  0.2197 -0.2136
14507SOL    HW244963   7.703   3.455   1.797  0.8630 -0.0185 -1.0117
14508SOL     OW44964   2.947   1.708   2.252  0.0194  0.3410  0.4901
14508SOL    HW144965   2.956   1.801   2.232  1.5439 -0.1227 -1.2504
14508SOL    HW244966   3.003   1.694   2.328 -0.8109  0.9546  1.2362
14509SOL     OW44967   2.893   7.554   0.041 -0.6052  0.1484  0.0682
14509SOL    HW144968   2.953   7.555   0.116  0.3184 -1.0763 -0.6218
14509SOL    HW244969   2.942   7.512  -0.029 -1.6177  0.8404 -1.1120
14510SOL     OW44970   0.988   3.970  10.343 -0.3346 -0.1719 -0.8250
14510SOL    HW144971   0.895   3.967  10.364 -0.4618 -0.1779 -1.3704
14510SOL    HW244972   0.996   4.040  10.278  0.2282  0.6533  0.1083
14511SOL     OW44973   7.578   6.034   6.757 -0.0358  0.1538  0.6855
14511SOL    HW144974   7.526   5.965   6.798 -1.0656  0.2142 -0.4357
14511SOL    HW244975   7.513   6.087   6.709  0.8493  1.3408  0.7673
14512SOL     OW44976   2.840   3.603   9.639  0.2200 -0.6043 -0.0718
14512SOL    HW144977   2.934   3.613   9.650  0.0490  2.4308 -0.4913
14512SOL    HW244978   2.830   3.551   9.559  1.4748 -2.0686  0.6801
14513SOL     OW44979   6.961   5.818   5.651 -0.0020  0.3257 -0.5939
14513SOL    HW144980   6.925   5.729   5.650  0.9748 -0.0795 -0.6342
14513SOL    HW244981   6.901   5.869   5.596 -0.4346 -0.3601 -0.7665
14514SOL     OW44982   3.335   0.098   7.195  0.7749  0.1203  0.5523
14514SOL    HW144983   3.262   0.112   7.135 -0.8687  0.4048  2.4985
14514SOL    HW244984   3.351   0.004   7.192 -0.8791 -0.2313  1.3512
14515SOL     OW44985   7.520   6.621   4.496 -0.6456  0.2118  0.2905
14515SOL    HW144986   7.534   6.711   4.467  0.3975 -0.2225 -0.6394
14515SOL    HW244987   7.526   6.626   4.592 -1.5572  1.2610  0.3163
14516SOL     OW44988   6.352   3.919   5.420 -0.1799  0.1373  0.4269
14516SOL    HW144989   6.348   3.967   5.503  0.3164 -0.7118  0.9621
14516SOL    HW244990   6.266   3.933   5.380 -0.8733 -0.4424  1.6600
14517SOL     OW44991   0.153   1.180  10.699 -0.0828  0.4191  0.4533
14517SOL    HW144992   0.167   1.205  10.790  2.0614 -0.4669  0.4093
14517SOL    HW244993   0.188   1.092  10.692 -0.6833  0.2683 -1.1238
14518SOL     OW44994   5.239   0.602   0.455  0.2556  0.7498 -0.0078
14518SOL    HW144995   5.316   0.554   0.424 -0.4128  0.4006 -1.1590
14518SOL    HW244996   5.172   0.535   0.465  0.0500  1.0750  0.8675
14519SOL     OW44997   3.232   0.903   8.063 -0.5729 -0.2865 -0.6680
14519SOL    HW144998   3.326   0.899   8.075 -0.7455  0.4916  1.3381
14519SOL    HW244999   3.214   0.843   7.991  1.2133 -2.0698  0.2750
14520SOL     OW45000   7.346   2.311   2.657 -0.3197 -0.4293 -0.3331
14520SOL    HW145001   7.349   2.223   2.620 -0.0799 -0.9708  0.9331
14520SOL    HW245002   7.428   2.351   2.631 -1.1922  0.1126 -2.4860
14521SOL     OW45003   3.918   6.588   0.017  0.1463  0.0874 -0.2630
14521SOL    HW145004   3.830   6.550   0.018  0.0468  0.3075  1.5038
14521SOL    HW245005   3.906   6.673  -0.026 -0.0715 -0.7759 -1.9969
14522SOL     OW45006   3.421   7.436   5.327  0.0446  0.0859 -0.2477
14522SOL    HW145007   3.469   7.460   5.407  1.1400 -0.2673 -0.7811
14522SOL    HW245008   3.347   7.384   5.359  0.8471 -0.6375  0.5084
14523SOL     OW45009   7.707   5.920   7.284  0.0357 -0.0150  0.5664
14523SOL    HW145010   7.655   5.907   7.205  1.6925  2.0964 -0.9942
14523SOL    HW245011   7.682   6.006   7.316 -0.4680 -0.7679  2.2823
14524SOL     OW45012   4.839   4.665   0.513  0.1568 -0.2024 -0.3480
14524SOL    HW145013   4.928   4.681   0.483  0.6548 -1.0241  0.6330
14524SOL    HW245014   4.843   4.677   0.608 -1.1109  1.1701 -0.4359
14525SOL     OW45015   3.931   4.529   3.911  0.3242  0.6716  0.5572
14525SOL    HW145016   4.001   4.593   3.906  1.7063 -0.6825  1.8366
14525SOL    HW245017   3.935   4.495   4.000  0.9995 -2.6300 -0.5904
14526SOL     OW45018   5.647   2.270   9.534 -0.0472  0.0005 -0.0459
14526SOL    HW145019   5.669   2.274   9.441  0.7766 -0.5835  0.1145
14526SOL    HW245020   5.626   2.361   9.557 -0.9739  0.0414 -0.9513
14527SOL     OW45021   3.192   5.322   6.024 -0.2254  0.1352 -0.5031
14527SOL    HW145022   3.246   5.243   6.017 -0.7272 -0.2732  0.2294
14527SOL    HW245023   3.131   5.316   5.951  0.5882  0.5204 -1.2442
14528SOL     OW45024   2.623   6.214   5.218  1.0606 -0.4504 -0.2039
14528SOL    HW145025   2.660   6.139   5.171 -1.3927 -1.8778 -0.0336
14528SOL    HW245026   2.619   6.185   5.309 -0.4160 -0.3779 -0.2191
14529SOL     OW45027   7.896   6.953   9.862 -0.3450 -0.2019  0.2604
14529SOL    HW145028   7.959   6.921   9.926 -0.0631  0.0828  0.1248
14529SOL    HW245029   7.949   6.991   9.792 -0.6635  1.6045  0.9484
14530SOL     OW45030   5.069   7.858   7.156  0.1822 -0.0010 -0.1151
14530SOL    HW145031   5.010   7.929   7.183 -1.5262 -0.7504 -1.7024
14530SOL    HW245032   5.134   7.901   7.101  0.9421  0.7663  1.3103
14531SOL     OW45033   6.671   7.824   6.902  0.3408  1.0082  0.6530
14531SOL    HW145034   6.626   7.800   6.983 -0.6241 -0.9733 -0.3861
14531SOL    HW245035   6.602   7.828   6.837  1.5117 -2.5411 -1.0904
14532SOL     OW45036   4.066   7.726  11.805 -0.1144 -0.0577 -0.0525
14532SOL    HW145037   4.013   7.790  11.758  0.8025  0.4621 -0.4067
14532SOL    HW245038   4.127   7.693  11.739 -1.4347 -2.3142 -0.2347
14533SOL     OW45039   2.498   6.121   9.689  0.1482  0.4484  0.1172
14533SOL    HW145040   2.407   6.127   9.720 -0.7204  0.3657 -2.1858
14533SOL    HW245041   2.517   6.208   9.653  0.0893 -0.1809 -1.5392
14534SOL     OW45042   2.966   3.310   1.216 -0.6195  0.2720 -0.8133
14534SOL    HW145043   3.055   3.343   1.226 -1.2328  1.4344  1.4207
14534SOL    HW245044   2.950   3.314   1.121  0.6421  2.9590 -1.0087
14535SOL     OW45045   4.513   6.882   0.154 -0.1647  0.8631  0.7131
14535SOL    HW145046   4.597   6.847   0.122  0.2721 -0.8113  3.3782
14535SOL    HW245047   4.509   6.971   0.117  1.3664 -0.0013 -1.8169
14536SOL     OW45048   1.764   4.723   7.935 -0.6541  0.1113 -0.1201
14536SOL    HW145049   1.778   4.753   8.025 -0.0342 -1.3195  0.2800
14536SOL    HW245050   1.813   4.786   7.882  1.7597 -0.8591  0.8060
14537SOL     OW45051   7.331   7.376  11.395 -0.3071  0.2753  0.1719
14537SOL    HW145052   7.293   7.302  11.444 -0.1770  1.1274  1.6248
14537SOL    HW245053   7.386   7.421  11.459  0.4118  1.0692 -0.9671
14538SOL     OW45054   2.342   7.410   9.306  0.2731 -0.0694  0.5856
14538SOL    HW145055   2.371   7.454   9.386  1.0404  0.4600  0.0339
14538SOL    HW245056   2.409   7.432   9.241 -0.9707  0.5603 -0.5386
14539SOL     OW45057   6.578   6.860   7.509  0.4459 -0.2984  0.3044
14539SOL    HW145058   6.658   6.809   7.521  0.5154 -0.1019  0.7160
14539SOL    HW245059   6.523   6.807   7.452  0.1332 -1.2722  1.4794
14540SOL     OW45060   4.760   5.811   6.732 -0.9672  0.2432 -0.4687
14540SOL    HW145061   4.707   5.870   6.679 -0.6600  0.6062 -0.3680
14540SOL    HW245062   4.737   5.833   6.823 -1.0709  0.0076 -0.4359
14541SOL     OW45063   5.801   2.469   6.065  0.0325  0.3106  0.7041
14541SOL    HW145064   5.878   2.491   6.117  0.9699 -1.5279  0.1866
14541SOL    HW245065   5.752   2.407   6.120  0.6342 -1.0491 -0.2439
14542SOL     OW45066   0.520   6.918   2.264 -0.1414  0.7905 -0.4115
14542SOL    HW145067   0.537   6.888   2.175 -0.8911  1.6260 -0.8594
14542SOL    HW245068   0.600   6.963   2.290  0.7610 -1.0170  0.0414
14543SOL     OW45069   7.230   3.106   8.902  0.3183  0.6793  0.3430
14543SOL    HW145070   7.166   3.160   8.947  1.0422  1.0035  1.0006
14543SOL    HW245071   7.207   3.016   8.925  0.3808  0.8201  0.9585
14544SOL     OW45072   5.270   3.471   5.115 -1.1259 -0.0149 -0.3612
14544SOL    HW145073   5.224   3.397   5.156  1.3195 -1.3301  0.2104
14544SOL    HW245074   5.360   3.462   5.144 -0.5516  2.7573 -0.9891
14545SOL     OW45075   2.200   4.698   5.622 -0.2851  0.5312 -0.0808
14545SOL    HW145076   2.165   4.765   5.563 -0.3777 -0.5047 -1.2368
14545SOL    HW245077   2.234   4.630   5.564  0.1233 -0.2706  1.0645
14546SOL     OW45078   2.394   5.600   7.784 -0.1479  0.0687  0.4883
14546SOL    HW145079   2.433   5.594   7.697 -0.5147 -1.3440  0.4009
14546SOL    HW245080   2.300   5.602   7.767 -0.2146 -0.0620  0.8507
14547SOL     OW45081   5.660   5.041  10.423 -0.0209 -0.1050 -0.1328
14547SOL    HW145082   5.673   5.113  10.362  1.1731 -1.5972 -1.7462
14547SOL    HW245083   5.748   5.017  10.451 -0.2123 -1.9625 -0.9481
14548SOL     OW45084   0.680   1.280  12.010 -0.6347  0.5838  0.1981
14548SOL    HW145085   0.700   1.373  12.005  0.3382  0.3136 -2.5174
14548SOL    HW245086   0.635   1.260  11.928  0.1765 -1.5317  0.1931
14549SOL     OW45087   4.166   4.753   5.764 -0.1505 -0.3146 -0.2207
14549SOL    HW145088   4.175   4.832   5.711  0.8775 -1.2845 -1.5725
14549SOL    HW245089   4.196   4.779   5.851  0.3178  0.7454 -0.6840
14550SOL     OW45090   3.573   7.139   1.956  0.7547 -0.4530 -0.1905
14550SOL    HW145091   3.550   7.224   1.993  1.3973  0.4183 -1.6566
14550SOL    HW245092   3.502   7.080   1.982  1.1385  0.0896  2.2687
14551SOL     OW45093   2.034   4.326  10.716  0.0412 -0.0332  0.0805
14551SOL    HW145094   1.985   4.408  10.704 -0.2084 -0.3228 -0.9882
14551SOL    HW245095   2.107   4.333  10.654 -0.1529 -0.7450 -0.2406
14552SOL     OW45096   1.637   7.405   4.983 -0.3950  0.1566  0.1207
14552SOL    HW145097   1.637   7.322   4.935 -2.5771  0.8504 -1.2416
14552SOL    HW245098   1.632   7.380   5.075 -3.9876 -1.3851 -0.3182
14553SOL     OW45099   1.615   6.134   2.880  0.1457  0.4683 -0.0616
14553SOL    HW145100   1.662   6.216   2.885  2.1986 -0.6964  0.8927
14553SOL    HW245101   1.649   6.082   2.953 -1.5047 -1.0288 -0.2863
14554SOL     OW45102   4.194   2.525   4.490 -0.0936  0.4842 -0.1075
14554SOL    HW145103   4.274   2.517   4.439 -0.3590 -0.4996 -0.3895
14554SOL    HW245104   4.148   2.600   4.452  0.8214  1.2624  0.2641
14555SOL     OW45105   4.990   7.036   8.097  0.1948  0.1868  0.1231
14555SOL    HW145106   5.078   7.007   8.120 -0.0009 -1.2171 -0.7307
14555SOL    HW245107   5.002   7.098   8.026  0.4688 -1.1063 -1.0044
14556SOL     OW45108   4.413   2.121   7.708  0.2013 -0.4632  0.0391
14556SOL    HW145109   4.318   2.122   7.701  0.1217 -0.3853  1.0132
14556SOL    HW245110   4.430   2.125   7.802  1.1564 -1.1927 -0.0891
14557SOL     OW45111   6.742   7.732  11.323 -0.6354  0.0691 -0.1251
14557SOL    HW145112   6.694   7.651  11.308 -1.1992  0.4383 -0.3447
14557SOL    HW245113   6.702   7.770  11.402  0.5846 -0.5713  0.8324
14558SOL     OW45114   7.186   0.725   9.929 -0.4127  0.1793  0.3071
14558SOL    HW145115   7.220   0.808   9.964 -0.5989 -0.0442  1.0496
14558SOL    HW245116   7.260   0.664   9.936 -0.2353  0.3110 -0.3618
14559SOL     OW45117   7.031   2.124  10.071 -0.4835 -0.7585 -0.0319
14559SOL    HW145118   6.964   2.171  10.023 -1.3750 -0.6973  1.2189
14559SOL    HW245119   7.056   2.183  10.142  0.1800 -1.1756  0.0910
14560SOL     OW45120   7.702   4.885   0.936 -0.8779 -0.0733  0.2710
14560SOL    HW145121   7.681   4.978   0.944 -1.4213 -0.1864  0.1759
14560SOL    HW245122   7.626   4.839   0.971 -0.1396 -0.4808  1.4091
14561SOL     OW45123   5.342   4.585   9.924  0.2433 -0.2177  0.4616
14561SOL    HW145124   5.312   4.494   9.930  0.2512 -0.4411 -1.9443
14561SOL    HW245125   5.436   4.579   9.908  0.1892  0.2058 -0.0311
14562SOL     OW45126   1.124   1.259   6.114 -0.5718 -0.3978 -0.0386
14562SOL    HW145127   1.079   1.191   6.064 -1.1295  1.1828 -1.8438
14562SOL    HW245128   1.200   1.282   6.060  0.1072 -0.1994  0.9707
14563SOL     OW45129   2.503   5.872   8.396 -0.2579 -1.4196 -1.1689
14563SOL    HW145130   2.451   5.792   8.384 -1.4118 -0.4829 -2.7958
14563SOL    HW245131   2.438   5.941   8.412  0.7655 -1.1469  3.4920
14564SOL     OW45132   5.070   4.626   3.539 -0.8068  0.3948 -0.0654
14564SOL    HW145133   5.005   4.695   3.527 -0.4479  1.0666  1.5734
14564SOL    HW245134   5.107   4.612   3.452 -2.0065  1.1285 -0.7139
14565SOL     OW45135   2.186   0.830   6.043  0.0264 -0.4692  0.6647
14565SOL    HW145136   2.094   0.838   6.019  0.4465  0.2030 -0.8414
14565SOL    HW245137   2.205   0.912   6.089 -0.2952 -0.9288  1.6432
14566SOL     OW45138   7.213   1.869   0.820 -0.1130 -0.1190 -0.5490
14566SOL    HW145139   7.231   1.775   0.814  1.1232  0.1657 -1.7065
14566SOL    HW245140   7.133   1.881   0.769  0.2132 -0.4350 -1.1537
14567SOL     OW45141   5.299   3.216   9.259  0.1457 -0.1131  0.3008
14567SOL    HW145142   5.236   3.181   9.322  1.4872 -2.1792  0.5544
14567SOL    HW245143   5.374   3.158   9.264  0.1550 -0.7068 -3.5339
14568SOL     OW45144   0.968   1.358  10.164 -0.0969 -0.3673  0.4957
14568SOL    HW145145   0.925   1.290  10.216 -0.9212 -1.1757 -1.1604
14568SOL    HW245146   0.903   1.427  10.156 -0.0783 -0.3751  0.2846
14569SOL     OW45147   4.230   6.114   3.955  0.2208  0.1033  0.1013
14569SOL    HW145148   4.260   6.093   3.867 -0.4975  0.2001 -0.1694
14569SOL    HW245149   4.150   6.062   3.967 -0.1490  0.7222  0.3823
14570SOL     OW45150   1.917   1.381   2.406 -0.6001  0.0798  0.2675
14570SOL    HW145151   1.830   1.418   2.417 -0.6172  0.2195 -0.3005
14570SOL    HW245152   1.973   1.432   2.464 -0.7238  0.6254 -0.0891
14571SOL     OW45153   5.771   1.574  10.917  0.0805  0.3114  0.2071
14571SOL    HW145154   5.761   1.647  10.978 -0.9407 -0.2867  0.7784
14571SOL    HW245155   5.782   1.497  10.973  0.6557 -0.0432 -0.3818
14572SOL     OW45156   0.696   6.303   2.220  0.3362 -0.1429  0.3752
14572SOL    HW145157   0.631   6.241   2.188  0.0005 -0.2058  1.1528
14572SOL    HW245158   0.727   6.266   2.303  1.4767 -0.1879 -0.0457
14573SOL     OW45159   3.240   7.879   5.845 -0.0464  0.0902 -0.8981
14573SOL    HW145160   3.146   7.882   5.830 -0.1392  0.1160 -0.3327
14573SOL    HW245161   3.268   7.971   5.843 -0.1703  0.1445 -0.2390
14574SOL     OW45162   2.437   1.726   9.035  0.3479 -0.1205  0.5437
14574SOL    HW145163   2.483   1.654   9.078 -0.0578 -0.7342 -0.0219
14574SOL    HW245164   2.438   1.702   8.942 -0.1539  0.3979  0.4026
14575SOL     OW45165   2.119   1.203   9.378 -0.1919  0.1537 -0.8238
14575SOL    HW145166   2.162   1.118   9.381 -0.3673 -0.1465 -3.9371
14575SOL    HW245167   2.028   1.186   9.402  0.0106 -0.3202 -0.3754
14576SOL     OW45168   7.195   6.672   4.034 -0.4924  0.2209  0.0386
14576SOL    HW145169   7.181   6.767   4.037  1.6906  0.6016  0.3226
14576SOL    HW245170   7.210   6.653   3.942  0.0371  0.3599  0.0861
14577SOL     OW45171   0.204   1.311   5.356 -0.6948 -0.0229 -0.2959
14577SOL    HW145172   0.169   1.333   5.269  1.6582 -1.1344 -1.6150
14577SOL    HW245173   0.258   1.386   5.380  2.0829 -1.3692 -1.8399
14578SOL     OW45174   4.158   4.425   9.709  0.0413  0.4624 -0.2298
14578SOL    HW145175   4.117   4.511   9.719 -2.5816 -0.5107 -1.6910
14578SOL    HW245176   4.184   4.422   9.617  1.7899  0.3433  0.2474
14579SOL     OW45177   2.483   4.030   8.873 -0.3298  0.5553  0.5465
14579SOL    HW145178   2.529   4.049   8.791 -1.6968 -0.8888 -0.6490
14579SOL    HW245179   2.391   4.049   8.853 -0.8521 -1.0034  1.3228
14580SOL     OW45180   6.595   4.703  10.581  0.0236  0.3851 -0.4887
14580SOL    HW145181   6.569   4.770  10.518  0.1495  1.4477  0.5556
14580SOL    HW245182   6.516   4.652  10.596 -0.3228  0.8876 -0.5921
14581SOL     OW45183   2.303   6.145  12.386  0.4030  0.1567 -0.1761
14581SOL    HW145184   2.239   6.168  12.318  1.4016 -0.8403 -1.5042
14581SOL    HW245185   2.323   6.229  12.428 -0.5878  0.7334 -0.7955
14582SOL     OW45186   5.458   7.286  11.216 -0.0637  0.1961  0.2682
14582SOL    HW145187   5.388   7.239  11.263 -1.1797  1.2380 -0.2931
14582SOL    HW245188   5.440   7.270  11.124 -1.0408  2.4247  0.0123
14583SOL     OW45189   0.933   6.483   4.840 -0.3373 -0.2085 -0.0122
14583SOL    HW145190   0.839   6.489   4.823 -0.3263 -0.0471 -0.0179
14583SOL    HW245191   0.974   6.485   4.753 -0.3318 -0.3314 -0.0120
14584SOL     OW45192   0.914   3.820   5.211 -0.4183 -0.3252  0.2642
14584SOL    HW145193   0.894   3.868   5.291  1.1880  0.3291  0.3029
14584SOL    HW245194   0.913   3.728   5.237 -1.0630 -0.1871  0.7508
14585SOL     OW45195   1.683   7.774   3.037 -0.2391 -0.0399 -0.1775
14585SOL    HW145196   1.744   7.734   3.099 -0.3370  0.5539  0.3107
14585SOL    HW245197   1.717   7.750   2.951  0.3227 -0.2401  0.0941
14586SOL     OW45198   4.436   2.928   4.268  0.1426  0.2573 -0.3055
14586SOL    HW145199   4.484   2.934   4.186 -0.0006 -2.1554 -0.6446
14586SOL    HW245200   4.492   2.876   4.325 -1.4389 -1.5598 -0.2903
14587SOL     OW45201   0.301   7.498  11.050  0.5090  0.3816 -0.6775
14587SOL    HW145202   0.391   7.531  11.051  0.8717 -0.3237 -3.0953
14587SOL    HW245203   0.256   7.556  10.989 -0.5103  0.3099 -0.0069
14588SOL     OW45204   5.247   1.562  11.142 -0.2615  0.2264 -0.4521
14588SOL    HW145205   5.213   1.642  11.102  0.4249  1.6526  1.6448
14588SOL    HW245206   5.336   1.554  11.108  0.4498  1.6335  0.9280
14589SOL     OW45207   3.068   6.569   5.098 -0.4245  0.1413 -0.6364
14589SOL    HW145208   3.156   6.602   5.117 -0.5012  0.0774 -0.1450
14589SOL    HW245209   3.070   6.545   5.006  0.0294  0.2836 -0.6632
14590SOL     OW45210   5.232   0.773   1.353  0.5354 -0.0617  0.2430
14590SOL    HW145211   5.272   0.782   1.267  1.8210  1.7589  0.9939
14590SOL    HW245212   5.238   0.860   1.393 -1.5930 -0.4171  1.5304
14591SOL     OW45213   3.731   6.485  12.164  0.0458  0.3734  0.0496
14591SOL    HW145214   3.703   6.576  12.158 -1.1517  0.0231 -0.0171
14591SOL    HW245215   3.708   6.458  12.253  0.1312  0.0610 -0.0215
14592SOL     OW45216   0.142   5.939   1.414 -0.1576 -0.4022 -0.0336
14592SOL    HW145217   0.224   5.924   1.463  1.2059 -0.8949 -2.3423
14592SOL    HW245218   0.109   5.852   1.396 -0.8678 -0.2087  0.3075
14593SOL     OW45219   0.772   2.784   4.454 -0.3533 -0.1742 -0.2899
14593SOL    HW145220   0.856   2.739   4.460  0.0523  0.5497 -0.3371
14593SOL    HW245221   0.731   2.770   4.539 -0.3789 -0.9018 -0.4201
14594SOL     OW45222   1.345   3.325   1.283 -0.1889  0.3177  0.3282
14594SOL    HW145223   1.412   3.259   1.300 -0.6487 -0.8632 -2.0143
14594SOL    HW245224   1.387   3.387   1.223 -1.3911 -0.9668 -1.9521
14595SOL     OW45225   1.849   6.647   0.485  0.2719  0.0339  0.3229
14595SOL    HW145226   1.859   6.635   0.390  0.1321 -0.1122  0.3276
14595SOL    HW245227   1.783   6.715   0.494 -0.6485 -0.8431  0.3337
14596SOL     OW45228   5.590   3.053   7.655  0.8902 -0.4136 -0.7939
14596SOL    HW145229   5.606   3.043   7.749 -0.5722  0.6141 -0.3989
14596SOL    HW245230   5.591   2.964   7.621  1.7434 -0.7784  0.1433
14597SOL     OW45231   6.133   1.618   3.813 -0.5143  0.7004  0.3174
14597SOL    HW145232   6.085   1.682   3.760 -0.1954 -0.2691 -1.2276
14597SOL    HW245233   6.152   1.547   3.751 -1.0139 -0.9764  2.0118
14598SOL     OW45234   4.608   3.721   4.169 -0.3381  0.4229 -0.1820
14598SOL    HW145235   4.534   3.781   4.161 -0.3324  0.5466  0.6081
14598SOL    HW245236   4.656   3.752   4.246  0.8463  0.6725 -0.9920
14599SOL     OW45237   6.598   1.747  10.055 -0.3898  0.1623  0.0632
14599SOL    HW145238   6.668   1.812  10.060 -0.0184 -0.2204 -0.1705
14599SOL    HW245239   6.565   1.754   9.965  0.1424 -0.4773 -0.1909
14600SOL     OW45240   0.403   5.182   6.026 -0.3107  0.0897 -0.0478
14600SOL    HW145241   0.443   5.251   5.973  0.5576  0.1236  0.6218
14600SOL    HW245242   0.400   5.106   5.969 -0.5880  0.4743 -0.5572
14601SOL     OW45243   1.005   4.742   9.241  0.0921 -0.2538 -0.5181
14601SOL    HW145244   1.051   4.686   9.304  0.3143 -0.9749 -1.3180
14601SOL    HW245245   0.950   4.798   9.296  0.3972 -0.7667  0.3352
14602SOL     OW45246   3.060   0.863  10.583  0.4124  0.6268  0.6497
14602SOL    HW145247   3.105   0.822  10.657  0.2194  0.4405  0.6635
14602SOL    HW245248   2.971   0.828  10.586  0.4593  0.4640  0.2104
14603SOL     OW45249   5.873   7.045   1.802  0.3752 -0.5924  0.3167
14603SOL    HW145250   5.908   7.033   1.714 -0.0238  1.8738 -0.2605
14603SOL    HW245251   5.922   7.119   1.837 -0.9661 -0.1327  1.3121
14604SOL     OW45252   6.873   3.866   1.333  0.1531  0.4948 -0.2715
14604SOL    HW145253   6.926   3.808   1.279  0.5649  1.4059 -0.8584
14604SOL    HW245254   6.932   3.896   1.402 -0.2552 -0.3276  0.4648
14605SOL     OW45255   3.468   4.264   1.894 -0.4119  0.5715 -0.4187
14605SOL    HW145256   3.399   4.237   1.954  0.2058 -0.1951 -0.0470
14605SOL    HW245257   3.503   4.345   1.932 -0.3151  0.3251  0.0207
14606SOL     OW45258   4.428   5.754   7.334 -0.7859 -0.4463 -0.8281
14606SOL    HW145259   4.486   5.680   7.318 -1.3162 -1.4959  1.6897
14606SOL    HW245260   4.484   5.820   7.375 -0.8520 -0.4561 -0.7228
14607SOL     OW45261   0.788   6.353   4.602 -0.3304  0.3082  0.2524
14607SOL    HW145262   0.742   6.436   4.590 -0.1691  0.1933 -1.4737
14607SOL    HW245263   0.879   6.379   4.621 -0.4275  0.5286  0.4221
14608SOL     OW45264   5.899   2.674  10.528 -0.0576 -0.5681 -0.1385
14608SOL    HW145265   5.990   2.690  10.503 -0.9862  0.2568 -3.3913
14608SOL    HW245266   5.876   2.751  10.581  1.0971 -0.8438  0.8360
14609SOL     OW45267   1.275   2.524  10.532 -0.1764  0.5935 -0.1325
14609SOL    HW145268   1.252   2.549  10.621 -1.2382 -1.8092  0.3365
14609SOL    HW245269   1.335   2.450  10.543 -0.9298 -0.2408 -1.3795
14610SOL     OW45270   4.959   0.114   8.691  0.0896 -0.2222 -0.2187
14610SOL    HW145271   5.037   0.066   8.664  0.5236  0.6174 -0.5037
14610SOL    HW245272   4.982   0.149   8.777  0.4531  0.9327 -0.7702
14611SOL     OW45273   3.215   0.938   6.841 -0.5946 -0.0007 -0.2532
14611SOL    HW145274   3.246   0.849   6.825  0.8274  0.5561 -0.8133
14611SOL    HW245275   3.178   0.935   6.929 -1.1293 -1.2724 -0.4928
14612SOL     OW45276   6.187   2.921   8.116  0.0460  0.8922  0.6110
14612SOL    HW145277   6.282   2.910   8.108  0.2865  1.3916  2.3785
14612SOL    HW245278   6.168   2.900   8.207 -1.2464  2.8183  0.8424
14613SOL     OW45279   1.687   3.097  11.355 -0.1055  0.1993 -0.6127
14613SOL    HW145280   1.659   3.183  11.322 -1.4491 -0.7781 -2.1324
14613SOL    HW245281   1.771   3.115  11.397  0.0007  2.1451 -1.5265
14614SOL     OW45282   5.211   5.351   8.195  0.5901 -0.3285  0.1967
14614SOL    HW145283   5.206   5.292   8.271 -0.3502  0.4057  0.7154
14614SOL    HW245284   5.123   5.349   8.157  0.2674  1.4740  0.7914
14615SOL     OW45285   3.111   0.968   8.883  0.5727  0.0851 -0.1019
14615SOL    HW145286   3.083   0.877   8.878 -0.0341  0.0834  2.3192
14615SOL    HW245287   3.207   0.963   8.890  0.4612 -0.4344  1.1384
14616SOL     OW45288   1.790   6.346  12.439  0.1343 -0.2817 -0.9141
14616SOL    HW145289   1.848   6.271  12.451 -0.1250 -0.3652 -0.0971
14616SOL    HW245290   1.845   6.413  12.397  1.3579  0.2720  1.4001
14617SOL     OW45291   4.911   6.983   3.865  0.0594  0.4721 -0.3271
14617SOL    HW145292   4.817   6.972   3.873  0.2562 -0.0192  1.7982
14617SOL    HW245293   4.943   6.992   3.955  1.9734  1.2989 -1.0217
14618SOL     OW45294   1.896   6.662   9.178  0.1920  0.4616 -0.2296
14618SOL    HW145295   1.861   6.606   9.108 -1.7097  0.8365  0.3472
14618SOL    HW245296   1.818   6.693   9.225  1.3532 -1.4394  3.4046
14619SOL     OW45297   6.427   3.134   6.931 -0.1044 -0.1894 -0.5771
14619SOL    HW145298   6.503   3.190   6.919  1.4124 -1.8186  0.8837
14619SOL    HW245299   6.371   3.182   6.992  0.3688  0.4619 -0.6510
14620SOL     OW45300   1.257   6.888   4.820 -0.1371 -0.0334 -0.0249
14620SOL    HW145301   1.285   6.828   4.888 -0.0215  0.3965  0.3143
14620SOL    HW245302   1.313   6.868   4.745 -0.4378 -0.6800 -0.0768
14621SOL     OW45303   3.600   7.385   1.542 -0.2828 -0.4385 -0.5627
14621SOL    HW145304   3.678   7.397   1.597  0.0258 -1.3224 -0.7961
14621SOL    HW245305   3.546   7.323   1.590 -0.3538 -0.6394 -0.9012
14622SOL     OW45306   4.056   3.569   4.570 -0.1245 -0.2307  0.1464
14622SOL    HW145307   4.020   3.633   4.509 -4.0499 -1.8116  0.4761
14622SOL    HW245308   4.058   3.614   4.654  1.2617  0.6656 -0.3315
14623SOL     OW45309   5.324   2.955   5.722 -0.0329  0.8899 -0.0508
14623SOL    HW145310   5.334   3.028   5.661  0.2911  0.9137  0.0260
14623SOL    HW245311   5.238   2.968   5.762  0.4096  1.7840  0.6674
14624SOL     OW45312   7.043   7.855   0.462 -0.4135 -0.0115 -0.0053
14624SOL    HW145313   7.079   7.942   0.475 -0.5706 -0.0963  1.1023
14624SOL    HW245314   7.095   7.818   0.391 -1.1771  1.4278 -1.3805
14625SOL     OW45315   7.470   1.930   3.960 -0.5584 -0.1829 -0.2364
14625SOL    HW145316   7.564   1.939   3.973 -0.7935  2.7214  0.1941
14625SOL    HW245317   7.446   2.004   3.904 -2.7967  0.2983  1.2005
14626SOL     OW45318   4.548   7.726   2.923 -0.5106  0.1017  0.2974
14626SOL    HW145319   4.535   7.797   2.987 -2.2465 -0.4538  0.6313
14626SOL    HW245320   4.485   7.659   2.949  0.6408 -1.3060 -0.4067
14627SOL     OW45321   3.869   3.156   2.644 -0.1755  0.1862  0.3005
14627SOL    HW145322   3.951   3.184   2.686  0.1249 -0.5905  0.2494
14627SOL    HW245323   3.832   3.237   2.608  0.1571  0.6782  1.0311
14628SOL     OW45324   2.248   1.895   2.268  0.2165 -1.2087  0.0234
14628SOL    HW145325   2.303   1.927   2.196 -0.5404 -2.0626 -0.9651
14628SOL    HW245326   2.308   1.888   2.342  1.2483 -1.2501 -0.7774
14629SOL     OW45327   4.186   6.023   6.775 -0.9692 -0.2067 -0.2465
14629SOL    HW145328   4.271   5.982   6.760 -0.4625  0.4780  0.6302
14629SOL    HW245329   4.198   6.114   6.751 -0.8960  0.3119  1.5858
14630SOL     OW45330   2.157   0.843   1.420 -0.0481 -0.1785 -0.0266
14630SOL    HW145331   2.171   0.896   1.498  0.1137 -0.2314 -0.0197
14630SOL    HW245332   2.245   0.816   1.393 -0.0252  0.5594 -0.7271
14631SOL     OW45333   3.105   7.437   4.973 -0.1540  0.1171  0.2857
14631SOL    HW145334   3.082   7.379   5.046 -1.6860 -0.1941 -0.4116
14631SOL    HW245335   3.199   7.453   4.984  0.1999 -2.0222  0.8642
14632SOL     OW45336   1.837   7.595  11.559  0.4656 -0.2792  0.3489
14632SOL    HW145337   1.847   7.683  11.595  1.2654  0.0516 -0.6195
14632SOL    HW245338   1.882   7.599  11.474 -1.7091 -0.8938 -0.9122
14633SOL     OW45339   4.749   2.329  11.850  0.4524 -0.8114  0.1563
14633SOL    HW145340   4.688   2.402  11.839  2.3341  1.0843  1.4830
14633SOL    HW245341   4.693   2.251  11.852 -1.7656  0.6883 -0.0158
14634SOL     OW45342   3.067   6.914  11.309  0.1176 -0.0034  0.2893
14634SOL    HW145343   3.040   6.960  11.389 -0.0771  0.2954  0.0580
14634SOL    HW245344   3.089   6.826  11.338  0.9498  0.3627  0.8246
14635SOL     OW45345   6.624   2.810   4.533  0.3158 -0.3562 -0.1942
14635SOL    HW145346   6.622   2.725   4.490 -1.8931 -0.3688 -0.1770
14635SOL    HW245347   6.534   2.842   4.528  0.9676  1.7287  0.3190
14636SOL     OW45348   4.145   0.429   7.384 -0.2903 -0.1368  0.7949
14636SOL    HW145349   4.150   0.494   7.314 -0.0670 -0.4695  0.4963
14636SOL    HW245350   4.179   0.475   7.461 -0.5346  0.2308  0.6871
14637SOL     OW45351   2.945   1.579   3.734 -0.5076  0.0958 -0.0937
14637SOL    HW145352   3.014   1.603   3.673 -1.4574  1.5426 -0.6591
14637SOL    HW245353   2.991   1.549   3.812  0.8512  2.5061  0.1411
14638SOL     OW45354   6.264   5.237   7.702  0.3197 -0.2451 -0.5275
14638SOL    HW145355   6.354   5.220   7.730  1.7145  1.0074 -3.6861
14638SOL    HW245356   6.261   5.333   7.692 -1.4509 -0.2540 -0.2998
14639SOL     OW45357   2.713   2.533   1.857 -0.3125 -0.0120 -0.0736
14639SOL    HW145358   2.674   2.526   1.770 -1.3360 -2.4626  0.5005
14639SOL    HW245359   2.806   2.519   1.843 -0.3431  0.5091 -0.8570
14640SOL     OW45360   5.978   6.472   1.488  0.2329  0.1454 -0.5244
14640SOL    HW145361   5.952   6.430   1.570  1.0670 -0.6970 -0.6765
14640SOL    HW245362   5.942   6.560   1.494 -2.4111 -0.8497 -0.6231
14641SOL     OW45363   1.918   0.325   5.653 -0.1259  0.1794 -0.2660
14641SOL    HW145364   1.923   0.277   5.570 -1.1093  0.7180 -0.6625
14641SOL    HW245365   1.866   0.269   5.710  0.9046 -0.3787  0.1256
14642SOL     OW45366   2.439   7.424   2.170  0.0564  0.0208 -0.1301
14642SOL    HW145367   2.368   7.439   2.108 -0.3674 -0.0273  0.3320
14642SOL    HW245368   2.427   7.333   2.199 -0.4150  0.3757  0.8355
14643SOL     OW45369   3.152   3.378   1.991 -0.2273 -0.2064  0.0087
14643SOL    HW145370   3.136   3.295   1.946  1.9536  0.3762 -2.0518
14643SOL    HW245371   3.223   3.360   2.052 -1.5746 -0.4240  1.5794
14644SOL     OW45372   3.506   0.907   8.122 -0.2838  0.6563 -0.3093
14644SOL    HW145373   3.566   0.851   8.170  0.9108 -0.4590 -2.9132
14644SOL    HW245374   3.500   0.987   8.175  1.0595 -0.3747  1.5326
14645SOL     OW45375   3.878   1.130   3.801 -0.3214 -0.3394 -0.3713
14645SOL    HW145376   3.873   1.214   3.755  0.6905 -0.5043 -0.7959
14645SOL    HW245377   3.925   1.072   3.742  0.9599 -0.5778  0.8280
14646SOL     OW45378   3.794   2.468   6.303  0.0101 -0.8279  0.4211
14646SOL    HW145379   3.829   2.465   6.213  1.4413 -3.1378  0.9842
14646SOL    HW245380   3.872   2.468   6.359 -0.8368  1.3956  1.7281
14647SOL     OW45381   7.929   2.455   9.341 -0.2404 -0.0906 -0.5824
14647SOL    HW145382   7.948   2.494   9.427  0.2215  1.1831 -1.2361
14647SOL    HW245383   8.000   2.392   9.327 -0.4404 -0.4666  0.0596
14648SOL     OW45384   0.276   2.058   1.684  0.1965  0.3119 -0.3212
14648SOL    HW145385   0.307   2.035   1.772 -0.1292  1.4332  0.1045
14648SOL    HW245386   0.194   2.009   1.674 -0.4814  1.2326  0.5614
14649SOL     OW45387   1.664   6.910   1.117  0.2456  0.0633 -0.1033
14649SOL    HW145388   1.571   6.930   1.114  0.6520  2.0005 -0.9104
14649SOL    HW245389   1.698   6.965   1.188  0.4415 -2.4537  1.9194
14650SOL     OW45390   1.786   7.722   9.695  0.6506 -0.2654  0.0945
14650SOL    HW145391   1.702   7.763   9.713 -0.1412 -0.9343 -1.7788
14650SOL    HW245392   1.850   7.792   9.707 -0.4215  0.9156 -0.7775
14651SOL     OW45393   6.276   1.417   0.700  0.4964 -0.4393  0.5760
14651SOL    HW145394   6.333   1.370   0.640 -0.9232  1.0203 -2.0796
14651SOL    HW245395   6.190   1.418   0.657 -0.2627  1.8983  1.9625
14652SOL     OW45396   0.995   0.537   1.847 -0.5225 -0.0095 -0.1749
14652SOL    HW145397   1.003   0.553   1.753  0.9387  0.4306  0.0024
14652SOL    HW245398   1.082   0.557   1.883 -1.4673  1.4506  1.4948
14653SOL     OW45399   2.482   0.549   8.737  0.2359  0.0789  0.0769
14653SOL    HW145400   2.443   0.634   8.716  0.5922 -0.2119 -1.9227
14653SOL    HW245401   2.535   0.527   8.661  2.1233 -0.8287  1.5828
14654SOL     OW45402   2.575   0.202   1.306  0.2033  0.1375  0.2957
14654SOL    HW145403   2.599   0.290   1.334 -1.8357  1.2333 -1.1997
14654SOL    HW245404   2.609   0.195   1.217  0.2832 -0.5880  0.3745
14655SOL     OW45405   2.738   4.892   2.091 -0.0629  0.3277 -0.0632
14655SOL    HW145406   2.743   4.968   2.149  0.7183  2.3197 -2.5542
14655SOL    HW245407   2.811   4.904   2.029 -0.1225 -2.2923 -0.7560
14656SOL     OW45408   4.180   1.279  10.783 -0.6107  0.7440 -0.2870
14656SOL    HW145409   4.226   1.315  10.858 -1.0340 -1.4115  1.0833
14656SOL    HW245410   4.214   1.329  10.708  3.1855 -0.0222  0.7389
14657SOL     OW45411   4.580   3.603   8.977 -0.0341 -0.4618  0.0891
14657SOL    HW145412   4.490   3.622   8.951  0.0054  1.0988  0.9726
14657SOL    HW245413   4.573   3.577   9.069  0.4824  0.2417  0.3283
14658SOL     OW45414   1.607   3.657   2.305 -0.6000 -0.0728  0.0132
14658SOL    HW145415   1.700   3.658   2.283 -0.5791  0.4991  0.1270
14658SOL    HW245416   1.562   3.661   2.221 -0.5315 -0.8914 -0.0753
14659SOL     OW45417   4.138   6.916  11.109  0.9665 -0.0097  0.2801
14659SOL    HW145418   4.116   6.861  11.184 -0.5254 -1.3484 -1.0611
14659SOL    HW245419   4.081   6.885  11.039  0.3889  2.9621 -0.7096
14660SOL     OW45420   7.654   7.809   5.539 -0.0141 -0.1189 -0.0359
14660SOL    HW145421   7.596   7.886   5.540  0.1803  0.0991 -1.6570
14660SOL    HW245422   7.740   7.845   5.517  0.4657 -0.6008  1.0152
14661SOL     OW45423   3.510   7.754  12.085 -0.2167  0.4440 -0.1239
14661SOL    HW145424   3.464   7.825  12.129  0.7858 -0.5532  2.7458
14661SOL    HW245425   3.603   7.770  12.101  0.0889 -0.9388 -0.3258
14662SOL     OW45426   0.008   3.301   9.368  0.1149 -0.1030  0.8964
14662SOL    HW145427  -0.001   3.396   9.372 -0.3563 -0.0692 -0.5155
14662SOL    HW245428  -0.079   3.269   9.344  0.9280 -0.6335 -1.6882
14663SOL     OW45429   2.410   0.713   6.907 -0.0894  0.2617  0.1107
14663SOL    HW145430   2.343   0.656   6.945  0.1416 -0.5696 -0.6830
14663SOL    HW245431   2.403   0.795   6.956 -0.5918 -0.3655  1.1300
14664SOL     OW45432   5.455   1.833   3.383  0.2142 -0.0776  0.4100
14664SOL    HW145433   5.359   1.825   3.387  0.0591  0.2314 -1.5312
14664SOL    HW245434   5.475   1.907   3.440 -0.9567  1.1387 -0.6720
14665SOL     OW45435   6.855   3.654   4.134 -0.1084 -0.0902  0.4787
14665SOL    HW145436   6.794   3.689   4.069  0.3212  0.3972  0.3337
14665SOL    HW245437   6.803   3.591   4.184  0.0755 -2.2149 -1.7836
14666SOL     OW45438   6.906   2.502   1.366 -0.3089  0.0946 -0.0824
14666SOL    HW145439   6.969   2.452   1.417 -2.1599 -1.5447  0.7419
14666SOL    HW245440   6.913   2.465   1.277 -2.5801 -2.8018  0.7830
14667SOL     OW45441   5.151   0.247  10.614 -0.3590 -0.0468 -0.3008
14667SOL    HW145442   5.147   0.271  10.707 -0.0947 -1.6737  0.1671
14667SOL    HW245443   5.188   0.324  10.571 -0.1473  0.6066  0.9985
14668SOL     OW45444   1.220   0.351   2.456  0.0765 -0.2773  0.9037
14668SOL    HW145445   1.303   0.315   2.487  0.1396 -1.4808 -0.5157
14668SOL    HW245446   1.200   0.300   2.378  1.0406  3.8425 -2.4290
14669SOL     OW45447   6.099   6.817   6.616  0.0191 -0.1422 -0.5721
14669SOL    HW145448   6.118   6.747   6.553 -0.5337 -1.2143  0.4187
14669SOL    HW245449   6.182   6.833   6.660  0.1306 -0.2131 -0.7560
14670SOL     OW45450   5.710   0.680   0.419 -0.4625 -0.4806 -0.0610
14670SOL    HW145451   5.657   0.756   0.442 -1.3370 -0.8328 -0.8217
14670SOL    HW245452   5.769   0.712   0.351  0.6370  0.0222  1.0925
14671SOL     OW45453   6.987   5.521   8.541  0.1463  0.0747  0.2417
14671SOL    HW145454   6.919   5.480   8.487 -1.0126  0.2692  1.5047
14671SOL    HW245455   6.974   5.484   8.628  2.2335 -0.5333  0.3559
14672SOL     OW45456   3.719   5.094   8.359  0.3075 -0.0130 -0.1326
14672SOL    HW145457   3.777   5.018   8.351  2.2189  1.4167 -0.6101
14672SOL    HW245458   3.641   5.060   8.402  1.2451 -2.1664  0.0040
14673SOL     OW45459   6.323   3.397   6.745 -0.4952  0.2283 -0.3288
14673SOL    HW145460   6.249   3.343   6.715 -1.2843  0.3047  1.3411
14673SOL    HW245461   6.285   3.453   6.813  1.4320 -1.0440  1.9475
14674SOL     OW45462   6.449   2.437   3.939 -0.2477 -0.2604 -0.1912
14674SOL    HW145463   6.367   2.484   3.953 -0.4068 -0.8337  0.9765
14674SOL    HW245464   6.505   2.499   3.893 -0.6649  0.8511  0.7628
14675SOL     OW45465   4.963   7.787   0.896  0.5698 -0.0269  0.5899
14675SOL    HW145466   4.947   7.708   0.843  1.4980  1.0625 -1.4148
14675SOL    HW245467   4.891   7.846   0.872 -0.3706 -0.3483  2.4097
14676SOL     OW45468   1.591   1.549  11.079 -0.3215  0.0012 -0.2391
14676SOL    HW145469   1.524   1.489  11.112 -0.3180 -0.9124 -1.8391
14676SOL    HW245470   1.623   1.509  10.999  1.9223  0.6000  0.2912
14677SOL     OW45471   6.281   5.313   5.723  0.2278 -0.7427  0.0505
14677SOL    HW145472   6.204   5.332   5.777  0.8622 -0.4681  0.8826
14677SOL    HW245473   6.324   5.398   5.713 -0.3424 -0.6159 -1.6583
14678SOL     OW45474   1.371   3.125   8.150  0.2588 -0.5068  0.4052
14678SOL    HW145475   1.404   3.037   8.133 -0.0059 -0.2311 -1.7272
14678SOL    HW245476   1.305   3.113   8.218  0.9876 -1.7861  0.9130
14679SOL     OW45477   0.305   0.050  10.230  0.1737 -0.5242 -0.1209
14679SOL    HW145478   0.272   0.087  10.312 -1.9601 -0.3757 -0.9868
14679SOL    HW245479   0.364   0.116  10.195 -0.7824  0.5088  0.1439
14680SOL     OW45480   5.152   3.124   1.562  0.3039 -0.0172 -0.3477
14680SOL    HW145481   5.235   3.171   1.551  0.9338 -0.0285  3.3250
14680SOL    HW245482   5.176   3.037   1.593 -1.0636 -0.8553 -1.4956
14681SOL     OW45483   2.783   2.479   6.445  1.2001  0.6715 -0.4110
14681SOL    HW145484   2.827   2.429   6.376 -0.2438  0.0320 -0.9030
14681SOL    HW245485   2.841   2.471   6.521  0.5313 -2.8543 -0.0848
14682SOL     OW45486   3.276   1.905   8.099  0.2606 -0.2183 -0.2016
14682SOL    HW145487   3.274   1.865   8.186 -2.0687 -1.4589 -0.7485
14682SOL    HW245488   3.315   1.838   8.042  1.1778  0.3453 -0.2659
14683SOL     OW45489   4.797   2.896  10.346 -0.7942  0.3741  0.2390
14683SOL    HW145490   4.854   2.873  10.273  0.4838 -0.8595  1.5809
14683SOL    HW245491   4.729   2.828  10.345 -1.4007  0.9619 -0.4027
14684SOL     OW45492   6.776   2.675   5.726 -0.5603 -0.1007  0.3835
14684SOL    HW145493   6.800   2.712   5.812  0.6310 -1.9884  0.9138
14684SOL    HW245494   6.688   2.640   5.739 -0.2799 -0.6193  0.9271
14685SOL     OW45495   3.772   3.059   3.864 -0.0726 -0.3484 -0.5011
14685SOL    HW145496   3.703   2.993   3.871  1.5031 -1.9278  1.6639
14685SOL    HW245497   3.816   3.039   3.781  0.2405 -1.9414  0.0102
14686SOL     OW45498   1.680   4.488   2.509 -0.2681 -0.7483  0.0161
14686SOL    HW145499   1.616   4.423   2.480 -1.5781 -0.1428  1.4133
14686SOL    HW245500   1.677   4.483   2.605 -0.3447  1.3027  0.1601
14687SOL     OW45501   3.568   7.944   4.167  0.4506  0.0824  0.6099
14687SOL    HW145502   3.568   7.849   4.165 -0.1129  0.0757  0.8659
14687SOL    HW245503   3.650   7.969   4.124  0.5043 -0.5115  0.3635
14688SOL     OW45504   3.616   7.286   0.736  0.3686 -0.2159 -0.3262
14688SOL    HW145505   3.637   7.372   0.698 -0.0631  0.8458  1.6799
14688SOL    HW245506   3.700   7.252   0.766  0.6414 -0.8468 -1.7180
14689SOL     OW45507   2.896   5.252   0.419 -0.2280  0.3113  0.3077
14689SOL    HW145508   2.936   5.206   0.492  1.4410  2.4203  0.8353
14689SOL    HW245509   2.964   5.255   0.352 -0.5157  1.3600  0.0312
14690SOL     OW45510   4.511   2.886  12.283 -0.2979 -0.1338  0.1941
14690SOL    HW145511   4.579   2.934  12.331  1.4500 -2.0174 -0.2102
14690SOL    HW245512   4.470   2.831  12.350  0.6366 -1.1410 -0.0229
14691SOL     OW45513   4.073   0.290   7.779 -0.4810 -0.3291 -0.1611
14691SOL    HW145514   4.030   0.289   7.694 -1.7967  0.0057  0.4758
14691SOL    HW245515   4.009   0.330   7.838  0.7176  0.2174  0.8254
14692SOL     OW45516   6.368   5.772   9.381  0.2637  0.1753  0.7146
14692SOL    HW145517   6.409   5.702   9.331 -1.1497  0.3935 -0.8536
14692SOL    HW245518   6.368   5.847   9.321 -2.3486  0.1739  0.5917
14693SOL     OW45519   3.957   7.661   0.983  0.7276  0.0370  0.1011
14693SOL    HW145520   3.981   7.751   0.963  0.4595 -0.3631 -2.3601
14693SOL    HW245521   3.965   7.615   0.900 -1.0154 -1.7876  0.8505
14694SOL     OW45522   5.609   6.084   5.784  0.1769  0.0579 -0.1826
14694SOL    HW145523   5.697   6.120   5.800 -0.1943  0.9286 -0.0622
14694SOL    HW245524   5.556   6.117   5.856 -0.6005  0.7917 -1.0662
14695SOL     OW45525   4.575   6.962  11.982 -0.4235 -0.3281  0.6484
14695SOL    HW145526   4.638   6.894  11.959 -1.5888 -1.5794  0.9769
14695SOL    HW245527   4.538   6.990  11.899  1.1958  1.1255  0.3529
14696SOL     OW45528   4.908   7.320   6.751  0.7764  0.1337  0.2655
14696SOL    HW145529   4.939   7.326   6.661  1.0818 -4.1495 -0.1087
14696SOL    HW245530   4.813   7.311   6.743  0.0496  4.8371  0.8971
14697SOL     OW45531   5.665   3.241   0.152 -0.2782  0.4878 -0.6244
14697SOL    HW145532   5.757   3.233   0.128  0.0312 -0.3427  0.7589
14697SOL    HW245533   5.619   3.249   0.068  0.8747 -0.8714 -1.4296
14698SOL     OW45534   6.475   0.145  10.577 -0.0854  0.6746  0.7861
14698SOL    HW145535   6.495   0.181  10.491  0.3892 -0.3858  0.4417
14698SOL    HW245536   6.394   0.189  10.603  1.2432  3.1245  1.0801
14699SOL     OW45537   0.486   3.769   6.976 -0.2351  0.1551 -0.1908
14699SOL    HW145538   0.427   3.805   6.910 -0.9007 -0.3411  0.1231
14699SOL    HW245539   0.568   3.754   6.929 -0.3290  0.9209 -0.6135
14700SOL     OW45540   0.538   6.737   8.281 -0.5393  0.1406  0.3213
14700SOL    HW145541   0.457   6.688   8.290 -1.0244  0.8992  0.1792
14700SOL    HW245542   0.597   6.677   8.234 -0.7282 -0.7189  1.1626
14701SOL     OW45543   3.197   7.280  11.650  0.0436 -0.4264 -0.4391
14701SOL    HW145544   3.111   7.244  11.631 -0.0311 -0.2182 -0.4915
14701SOL    HW245545   3.199   7.288  11.745  0.1668 -0.8345 -0.4043
14702SOL     OW45546   5.012   0.430   4.714 -0.4926 -0.2240 -0.4099
14702SOL    HW145547   5.002   0.445   4.621  0.7463  0.2938 -0.4852
14702SOL    HW245548   5.082   0.364   4.720  1.5568  1.8900  0.1910
14703SOL     OW45549   6.506   7.144  10.853  0.4484 -0.2897  0.0422
14703SOL    HW145550   6.521   7.225  10.902  1.2240  0.0671 -0.7350
14703SOL    HW245551   6.486   7.174  10.764 -0.5111 -0.9276  0.0298
14704SOL     OW45552   0.488   2.453  11.474  0.1484 -0.0372 -0.1720
14704SOL    HW145553   0.565   2.427  11.424  1.7465  1.0754  1.5746
14704SOL    HW245554   0.494   2.548  11.482 -0.8968 -0.0199  0.7747
14705SOL     OW45555   6.509   2.077   0.565  0.1760 -0.3521 -0.1897
14705SOL    HW145556   6.591   2.114   0.597 -0.8893  0.9819  1.1364
14705SOL    HW245557   6.535   2.022   0.491  2.0442  1.6739 -1.1567
14706SOL     OW45558   5.376   3.266   1.513 -0.0243 -0.3113  0.1778
14706SOL    HW145559   5.428   3.267   1.432  0.6937  1.2432  0.6253
14706SOL    HW245560   5.435   3.232   1.579  0.2740  0.8878  0.5623
14707SOL     OW45561   4.707   6.600  11.345  0.0924  0.2936 -0.1663
14707SOL    HW145562   4.612   6.603  11.356 -0.0271  1.3943 -1.2632
14707SOL    HW245563   4.721   6.555  11.262  0.4839  0.8747 -0.4196
14708SOL     OW45564   4.511   1.726   5.531  0.2478  0.1248  0.2838
14708SOL    HW145565   4.498   1.657   5.467  0.4112 -0.2944  0.6976
14708SOL    HW245566   4.606   1.742   5.530  0.1823  0.5212  0.0099
14709SOL     OW45567   1.962   4.393   5.959  0.4753  0.4562 -0.2170
14709SOL    HW145568   2.053   4.366   5.943  0.6686 -0.1391  1.6247
14709SOL    HW245569   1.937   4.440   5.879  2.0054 -0.3589 -1.2498
14710SOL     OW45570   5.519   4.431   0.855  0.0863 -0.1641 -0.6514
14710SOL    HW145571   5.433   4.445   0.895 -0.1337 -0.2590 -1.0810
14710SOL    HW245572   5.545   4.517   0.824  0.0678 -0.1664 -0.6728
14711SOL     OW45573   1.817   0.977   0.652  0.1798  0.0871 -0.1240
14711SOL    HW145574   1.799   1.005   0.742  1.5785  0.1622  0.1604
14711SOL    HW245575   1.866   1.050   0.614  0.9829 -0.5900 -0.4262
14712SOL     OW45576   7.212   1.325  11.811 -0.7104 -0.0072  0.2266
14712SOL    HW145577   7.250   1.411  11.831 -1.2815  0.5025 -0.8162
14712SOL    HW245578   7.284   1.274  11.775 -0.4180  0.0834  0.6679
14713SOL     OW45579   0.166   4.544   0.633 -0.1649 -0.2483 -0.2354
14713SOL    HW145580   0.259   4.523   0.644 -0.3016 -0.3662  0.7897
14713SOL    HW245581   0.127   4.522   0.717 -1.1298 -0.2039 -0.6629
14714SOL     OW45582   3.397   6.151   0.208  0.0530  0.8305  0.2066
14714SOL    HW145583   3.326   6.088   0.211  2.4618 -2.1210  2.4966
14714SOL    HW245584   3.464   6.110   0.154  0.2950  3.3494 -1.5991
14715SOL     OW45585   4.655   3.668   6.493 -0.4525 -0.4525 -0.4020
14715SOL    HW145586   4.686   3.626   6.413  0.0874  0.4561 -0.6837
14715SOL    HW245587   4.617   3.751   6.464 -0.5581 -0.2663  0.2478
14716SOL     OW45588   0.996   2.308   2.065  0.1810 -0.0648  0.4973
14716SOL    HW145589   1.042   2.297   1.982  1.4304 -0.5582  1.2282
14716SOL    HW245590   0.914   2.261   2.053  1.0317 -1.4868  0.0651
14717SOL     OW45591   0.052   3.907   8.568  0.3095 -0.4706 -0.1443
14717SOL    HW145592  -0.027   3.962   8.566  1.8362  2.1546  2.3768
14717SOL    HW245593   0.107   3.942   8.499  0.0219 -1.0369 -0.6653
14718SOL     OW45594   5.116   2.936   6.405  0.3497 -0.4090  0.2194
14718SOL    HW145595   5.134   2.848   6.439  0.8041 -0.1679  0.6270
14718SOL    HW245596   5.101   2.989   6.483 -0.1696 -0.1723 -0.0362
14719SOL     OW45597   2.183   0.505   9.214 -0.2708 -0.3710  0.8190
14719SOL    HW145598   2.188   0.596   9.243  0.4120 -0.3552  0.6868
14719SOL    HW245599   2.124   0.463   9.276 -2.5259  0.6730 -0.4870
14720SOL     OW45600   0.717   5.549   1.259 -0.3774 -0.0176  0.0718
14720SOL    HW145601   0.715   5.537   1.164 -1.7766 -0.8121  0.1625
14720SOL    HW245602   0.792   5.605   1.275 -0.5525  0.7461 -1.5769
14721SOL     OW45603   1.386   2.078   5.229  0.7556 -0.4969  0.3991
14721SOL    HW145604   1.447   2.085   5.155  0.4676  0.5077  0.2429
14721SOL    HW245605   1.308   2.124   5.200 -0.8793 -3.3739 -0.1432
14722SOL     OW45606   7.683   4.324   8.358  0.0091  0.2060  0.1741
14722SOL    HW145607   7.627   4.273   8.300 -0.3425  2.8267 -1.9480
14722SOL    HW245608   7.644   4.312   8.445 -1.3809 -1.2554 -0.5919
14723SOL     OW45609   5.089   0.599   7.498  0.1164  1.0802 -0.0747
14723SOL    HW145610   5.170   0.630   7.457 -0.2687  0.9638 -0.9366
14723SOL    HW245611   5.094   0.632   7.588  1.1173  1.0743 -0.1221
14724SOL     OW45612   5.963   5.776   6.096 -0.9489 -0.6482  0.1979
14724SOL    HW145613   5.885   5.789   6.042 -0.1451 -1.2903 -1.1517
14724SOL    HW245614   5.994   5.864   6.116 -1.2324 -0.3989 -0.4322
14725SOL     OW45615   2.603   0.040   7.684  0.1368  0.3470 -0.6109
14725SOL    HW145616   2.578   0.113   7.740 -0.9303  0.2792 -0.9754
14725SOL    HW245617   2.601  -0.037   7.741 -0.0543  0.4114 -0.5319
14726SOL     OW45618   7.210   4.222   3.454 -0.0307 -0.4401 -0.1670
14726SOL    HW145619   7.200   4.318   3.451  0.4529 -0.3361  0.8100
14726SOL    HW245620   7.166   4.190   3.376 -2.5910  0.3909  0.8231
14727SOL     OW45621   6.913   7.029   9.171 -0.1180  0.1467  0.3859
14727SOL    HW145622   6.934   7.044   9.263 -0.4428  0.8880  0.3562
14727SOL    HW245623   6.983   7.073   9.123  0.1365 -0.3739  0.2749
14728SOL     OW45624   5.666   1.434  11.383  0.0507 -0.1779  0.6467
14728SOL    HW145625   5.589   1.422  11.439 -1.3070 -0.2755 -1.1503
14728SOL    HW245626   5.631   1.471  11.302  2.0733  0.8538  0.1888
14729SOL     OW45627   3.076   5.602   4.329 -0.1679  0.7613 -0.0799
14729SOL    HW145628   3.133   5.599   4.405 -1.5702  1.0034  1.0329
14729SOL    HW245629   3.085   5.691   4.295 -0.3035  0.9705  0.4281
14730SOL     OW45630   7.077   2.372  12.425  0.0564  0.4514 -0.3023
14730SOL    HW145631   7.149   2.421  12.385  0.4289  2.3937  2.5173
14730SOL    HW245632   7.013   2.362  12.354  1.2885  2.3880 -1.7853
14731SOL     OW45633   1.057   2.445   1.381  0.2125 -0.6985  0.4016
14731SOL    HW145634   1.114   2.473   1.310  1.4632 -0.1273  1.5740
14731SOL    HW245635   0.973   2.425   1.339  0.7557  0.1081 -1.1329
14732SOL     OW45636   5.746   7.482   0.871  0.3317  0.0253 -0.1632
14732SOL    HW145637   5.703   7.548   0.926  1.1779  0.2365  0.2656
14732SOL    HW245638   5.750   7.404   0.926  1.2261  0.2521  0.1194
14733SOL     OW45639   4.995   6.177  10.145  0.1726 -0.0305  0.1790
14733SOL    HW145640   4.954   6.198  10.061 -1.5458 -1.4540  0.5725
14733SOL    HW245641   5.014   6.261  10.186 -0.0264  0.6722 -1.1477
14734SOL     OW45642   2.637   7.886   8.175  0.3802 -0.0658  0.1053
14734SOL    HW145643   2.670   7.796   8.170  1.7983  0.4908 -1.6948
14734SOL    HW245644   2.706   7.934   8.220  0.2155  0.3737 -0.1129
14735SOL     OW45645   6.090   1.970   1.128  0.0537 -0.0990 -0.0041
14735SOL    HW145646   6.162   2.033   1.142 -0.6865  0.8093 -0.1591
14735SOL    HW245647   6.120   1.890   1.171  0.1464  0.9785  2.0650
14736SOL     OW45648   3.071   5.832   3.728 -0.2732 -0.3157 -0.2367
14736SOL    HW145649   3.076   5.919   3.768  0.5846  0.4453 -1.9119
14736SOL    HW245650   3.159   5.795   3.742 -0.5398 -0.7967  0.1924
14737SOL     OW45651   7.515   7.622   1.778 -0.0808  0.1051  0.2386
14737SOL    HW145652   7.459   7.553   1.744  1.4884 -1.8845  1.4568
14737SOL    HW245653   7.553   7.663   1.701  0.2133 -1.5150 -0.5084
14738SOL     OW45654   7.734   1.049   2.884 -0.7172  0.3969 -0.0632
14738SOL    HW145655   7.708   1.137   2.857 -1.2212  0.2563 -0.0505
14738SOL    HW245656   7.829   1.052   2.887 -0.6391  0.5091 -1.5664
14739SOL     OW45657   5.191   6.815  12.313 -0.1128  0.5760 -0.3080
14739SOL    HW145658   5.132   6.743  12.288 -0.8193  0.9986  0.0987
14739SOL    HW245659   5.142   6.894  12.290 -0.1114  0.9491  0.9182
14740SOL     OW45660   4.405   1.522  11.894 -0.2215  0.3676  0.2772
14740SOL    HW145661   4.311   1.531  11.905 -0.2841 -0.6765  0.6997
14740SOL    HW245662   4.443   1.572  11.968 -0.3767  1.9492 -0.6570
14741SOL     OW45663   0.949   7.518   7.746  0.3317 -0.4172 -0.2093
14741SOL    HW145664   0.947   7.581   7.818 -0.7355 -1.5901  0.8537
14741SOL    HW245665   1.041   7.514   7.720  0.6407  0.5030  0.6522
14742SOL     OW45666   7.773   1.099   1.913 -0.4693 -0.2295  0.0243
14742SOL    HW145667   7.741   1.042   1.843 -0.8177 -0.6199  0.4956
14742SOL    HW245668   7.835   1.044   1.962 -1.1382 -0.3645  0.7465
14743SOL     OW45669   5.205   2.739   4.050 -0.4481 -0.4839 -0.1158
14743SOL    HW145670   5.193   2.797   3.974  0.8777 -0.0629 -0.0178
14743SOL    HW245671   5.233   2.656   4.013 -1.5970 -0.8505 -0.2004
14744SOL     OW45672   4.029   1.740   8.017 -0.1427  0.5127 -0.5959
14744SOL    HW145673   4.029   1.687   8.096  2.0847 -0.2503 -1.0374
14744SOL    HW245674   3.959   1.703   7.963 -1.0824  0.4664  0.5965
14745SOL     OW45675   5.184   0.839   1.749 -0.5480 -0.1167 -0.0865
14745SOL    HW145676   5.254   0.864   1.690 -0.4111 -0.5938 -0.1284
14745SOL    HW245677   5.156   0.921   1.790 -0.1480  0.1087 -0.2676
14746SOL     OW45678   2.182   6.760  11.390 -0.1838 -0.3067 -0.1391
14746SOL    HW145679   2.170   6.738  11.298  1.4943  0.8323 -0.6845
14746SOL    HW245680   2.143   6.687  11.438  0.7301 -1.9562 -1.7773
14747SOL     OW45681   1.841   0.224  12.298 -0.2325  0.1781  0.0924
14747SOL    HW145682   1.880   0.172  12.369 -2.0533 -1.2904  0.0811
14747SOL    HW245683   1.826   0.310  12.337 -0.3192 -0.3180  1.1983
14748SOL     OW45684   2.369   6.767   3.487 -0.0956 -0.0945  0.1301
14748SOL    HW145685   2.426   6.810   3.551  0.9940 -1.1055 -0.1377
14748SOL    HW245686   2.427   6.741   3.416 -0.8970 -1.1014 -0.1776
14749SOL     OW45687   0.531   7.469  10.280 -0.4336  0.1687 -0.4372
14749SOL    HW145688   0.439   7.493  10.289 -0.0740  0.9533  1.5329
14749SOL    HW245689   0.538   7.385  10.325  0.1050  0.8730  0.8194
14750SOL     OW45690   7.432   5.352   2.118 -0.1304 -0.3240  0.1073
14750SOL    HW145691   7.520   5.314   2.110  0.3274  0.4216  1.3570
14750SOL    HW245692   7.376   5.293   2.068  0.8150 -1.8020  0.7213
14751SOL     OW45693   3.354   4.687   7.089 -0.2501 -0.4342  0.4687
14751SOL    HW145694   3.443   4.657   7.076 -0.2266  0.1774 -0.9898
14751SOL    HW245695   3.340   4.681   7.183  0.5763 -2.5826  0.5153
14752SOL     OW45696   0.129   6.188  11.837 -0.2901 -0.1837  0.0924
14752SOL    HW145697   0.192   6.116  11.835 -1.3071 -1.0794 -0.8822
14752SOL    HW245698   0.157   6.243  11.911  3.0947  0.8332 -1.7350
14753SOL     OW45699   6.692   4.928   2.700 -0.3569 -0.2994 -0.0509
14753SOL    HW145700   6.754   4.858   2.679 -1.0786 -0.0011 -3.9767
14753SOL    HW245701   6.613   4.882   2.728 -0.1997 -0.9951 -0.6995
14754SOL     OW45702   7.397   6.986  11.456 -0.8139 -0.1294 -0.4194
14754SOL    HW145703   7.420   7.010  11.366  0.4939  0.9901  0.1891
14754SOL    HW245704   7.323   7.043  11.478  1.3858  2.5848  0.5327
14755SOL     OW45705   1.762   1.305   1.020  0.2378  0.5485  0.0869
14755SOL    HW145706   1.670   1.325   1.039  0.3977  0.7101  0.7065
14755SOL    HW245707   1.811   1.350   1.089  0.6172 -1.8494  1.5211
14756SOL     OW45708   3.156   6.596   2.295 -0.1955  0.4495  0.1663
14756SOL    HW145709   3.077   6.635   2.257 -0.8692 -1.0067 -0.0036
14756SOL    HW245710   3.161   6.635   2.382  0.7614  3.0057 -0.9194
14757SOL     OW45711   7.390   6.863   0.460 -0.1395  0.1783  0.7370
14757SOL    HW145712   7.346   6.909   0.389  2.1072  0.6717 -0.4323
14757SOL    HW245713   7.352   6.775   0.460  1.1235 -0.5178 -2.4715
14758SOL     OW45714   7.763   3.842  10.840 -0.0585  0.1713  0.3583
14758SOL    HW145715   7.828   3.903  10.805 -0.0308 -1.0863 -1.9212
14758SOL    HW245716   7.679   3.886  10.826  0.1041  0.7641  1.1277
14759SOL     OW45717   7.949   0.405  10.923 -0.1973 -0.2368  0.3551
14759SOL    HW145718   7.890   0.330  10.918 -0.5959  0.0101  1.1546
14759SOL    HW245719   7.961   0.420  11.017  1.2529 -0.3625  0.2110
14760SOL     OW45720   6.591   7.901   8.176  0.0772  0.1606  0.0320
14760SOL    HW145721   6.536   7.823   8.177  0.9174 -0.4807 -0.9823
14760SOL    HW245722   6.663   7.878   8.117  0.7860  1.4048  0.3821
14761SOL     OW45723   7.495   6.954   2.580 -0.6226 -0.1641 -0.1482
14761SOL    HW145724   7.559   6.905   2.631 -0.0449 -0.2091 -0.9103
14761SOL    HW245725   7.445   6.886   2.533 -0.5290 -0.0817 -0.3697
14762SOL     OW45726   6.092   6.890   3.768  0.3869 -0.2212 -0.0611
14762SOL    HW145727   6.154   6.833   3.814  1.2276  0.5474 -0.2035
14762SOL    HW245728   6.045   6.831   3.708  1.2695 -0.7623 -0.2438
14763SOL     OW45729   3.045   0.911   9.607  0.0333 -0.2576 -0.2525
14763SOL    HW145730   3.000   0.926   9.690 -0.7522 -0.8447 -0.5532
14763SOL    HW245731   2.979   0.930   9.540  0.7816  0.6386 -0.7703
14764SOL     OW45732   7.185   5.421   6.275  0.3053 -0.3406 -0.2086
14764SOL    HW145733   7.120   5.417   6.205 -0.9253  1.3846  0.7640
14764SOL    HW245734   7.260   5.466   6.236 -0.5942  1.1377 -0.3047
14765SOL     OW45735   2.003   4.347   7.974 -0.2897  0.6730 -0.0254
14765SOL    HW145736   1.956   4.338   8.057  0.6724  1.3379  0.6043
14765SOL    HW245737   2.040   4.435   7.977  4.0387 -0.9543  1.1445
14766SOL     OW45738   3.691   6.333   9.428 -0.5393 -0.4402  0.1997
14766SOL    HW145739   3.748   6.320   9.352 -0.0885  0.4163  0.3758
14766SOL    HW245740   3.616   6.381   9.393 -0.9876 -1.2358  0.0431
14767SOL     OW45741   1.774   5.432   8.624  0.4129  0.2701 -0.1532
14767SOL    HW145742   1.689   5.426   8.668  0.8618 -2.6117  0.5009
14767SOL    HW245743   1.838   5.440   8.695  1.0158 -2.8181 -0.1974
14768SOL     OW45744   6.067   0.057  10.806 -0.3286  0.3294 -0.5796
14768SOL    HW145745   6.125   0.133  10.814 -1.4777  1.1310  0.5725
14768SOL    HW245746   6.095  -0.003  10.875 -1.1277  0.9260  0.2910
14769SOL     OW45747   1.743   3.647   3.057 -0.3016 -0.0794 -0.7503
14769SOL    HW145748   1.792   3.612   3.131  0.7445 -0.4676 -1.5893
14769SOL    HW245749   1.765   3.740   3.055 -0.0046 -0.1493 -0.8077
14770SOL     OW45750   6.336   7.268   3.456 -0.5182 -0.4461  0.5674
14770SOL    HW145751   6.327   7.361   3.434  0.9221 -0.5627 -0.6395
14770SOL    HW245752   6.246   7.239   3.475 -0.9895  1.1732  0.9622
14771SOL     OW45753   6.578   7.949  12.260 -0.3938  0.5689  0.1031
14771SOL    HW145754   6.560   8.040  12.235 -0.9680  0.0743 -1.3916
14771SOL    HW245755   6.622   7.911  12.184 -0.2301 -0.4343  0.6749
14772SOL     OW45756   1.565   4.293   0.274 -0.3079 -0.0779 -0.0059
14772SOL    HW145757   1.578   4.376   0.228 -1.3465 -0.6998 -1.4651
14772SOL    HW245758   1.653   4.263   0.295  0.0809  1.9388  1.6163
14773SOL     OW45759   2.663   0.203   7.988  0.1107 -0.2002  0.4539
14773SOL    HW145760   2.755   0.230   8.000  0.8651 -2.2707 -0.2931
14773SOL    HW245761   2.628   0.269   7.928  0.6971  1.3630  1.7428
14774SOL     OW45762   6.873   4.979   7.597 -0.2854 -0.0552 -0.2585
14774SOL    HW145763   6.828   5.037   7.536 -0.1591 -0.5141 -0.7898
14774SOL    HW245764   6.925   4.921   7.542  1.7380  1.0653  0.3613
14775SOL     OW45765   6.570   2.454   0.858  0.1914  0.6304 -0.1466
14775SOL    HW145766   6.665   2.458   0.868 -0.0713  1.6439  2.9603
14775SOL    HW245767   6.551   2.513   0.785  1.8712  1.2660 -0.1049
14776SOL     OW45768   6.468   1.301   0.537  0.2210  0.4874  0.2632
14776SOL    HW145769   6.563   1.283   0.539  0.1826 -0.5613 -2.5315
14776SOL    HW245770   6.434   1.240   0.471 -2.8406 -0.8321  2.8455
14777SOL     OW45771   3.357   4.236   8.621  0.5245 -0.0125  0.6607
14777SOL    HW145772   3.275   4.190   8.639 -0.2834  0.9227 -0.4858
14777SOL    HW245773   3.336   4.328   8.637  1.4869  0.1862  0.7986
14778SOL     OW45774   4.042   6.370   4.738  0.6654 -0.4155 -0.1517
14778SOL    HW145775   3.996   6.346   4.658  2.2408 -1.8439 -0.6790
14778SOL    HW245776   4.091   6.292   4.762  1.6785  0.5814  1.1739
14779SOL     OW45777   5.120   1.789   5.724  0.0030  0.2419  0.2839
14779SOL    HW145778   5.166   1.718   5.768  2.4301  1.7693  0.3766
14779SOL    HW245779   5.055   1.819   5.787  1.2590  0.2872  1.5885
14780SOL     OW45780   1.411   0.849   7.939 -0.0727  0.3316 -0.2532
14780SOL    HW145781   1.476   0.805   7.885  0.7968  1.4028 -0.1195
14780SOL    HW245782   1.349   0.885   7.877  0.6442  1.1209 -0.5333
14781SOL     OW45783   7.113   5.203   2.874 -0.1484 -0.3623  0.6438
14781SOL    HW145784   7.056   5.126   2.871  0.7615 -1.0195 -1.1577
14781SOL    HW245785   7.202   5.167   2.870  0.3146  0.7613  0.5269
14782SOL     OW45786   2.873   1.633  10.763 -0.3990  0.0138  0.2796
14782SOL    HW145787   2.782   1.649  10.791 -0.7486 -1.5115  0.1412
14782SOL    HW245788   2.874   1.540  10.738  1.4678 -0.3068  1.3362
14783SOL     OW45789   0.800   1.446   7.720 -0.1751 -0.2489 -0.3616
14783SOL    HW145790   0.796   1.356   7.753  1.3925 -0.2697 -0.1480
14783SOL    HW245791   0.861   1.491   7.779 -1.0465  1.0090 -0.3721
14784SOL     OW45792   1.732   1.433   9.092  0.5989 -0.2200  0.1693
14784SOL    HW145793   1.744   1.527   9.103 -0.8991 -0.0931  0.9723
14784SOL    HW245794   1.703   1.402   9.177  0.4565 -1.3000 -0.2561
14785SOL     OW45795   6.164   7.828  11.557 -0.0061  0.0445 -0.1690
14785SOL    HW145796   6.114   7.889  11.503  0.7400  0.3692 -0.5186
14785SOL    HW245797   6.099   7.768  11.592 -0.9413  1.7256  1.1497
14786SOL     OW45798   7.335   2.206   0.509 -0.4265 -0.0588  1.1865
14786SOL    HW145799   7.325   2.160   0.592  1.1326 -3.5743 -0.3965
14786SOL    HW245800   7.429   2.222   0.501 -0.5923  0.5164  0.2187
14787SOL     OW45801   4.595   1.830   9.419  0.3891 -0.0168 -0.3440
14787SOL    HW145802   4.686   1.819   9.447  0.3685 -0.7831 -0.5508
14787SOL    HW245803   4.543   1.811   9.498  0.4132  0.6915 -0.1544
14788SOL     OW45804   0.271   0.282  10.878 -0.3158 -0.4387 -0.9737
14788SOL    HW145805   0.256   0.250  10.789 -2.9352  0.9034 -1.1166
14788SOL    HW245806   0.211   0.232  10.932 -0.8353  0.7340 -0.4353
14789SOL     OW45807   4.213   2.711  12.199 -0.0909  0.1768 -0.0786
14789SOL    HW145808   4.220   2.701  12.104 -0.2947  1.0324 -0.1881
14789SOL    HW245809   4.166   2.793  12.212 -1.3256 -0.6303  0.7479
14790SOL     OW45810   1.666   3.986   0.553 -0.1392 -0.3461 -0.2582
14790SOL    HW145811   1.577   4.018   0.566  0.1935 -0.0535  1.4328
14790SOL    HW245812   1.706   4.052   0.496 -0.6182  0.2011  0.0248
14791SOL     OW45813   1.930   7.104   8.265 -0.9361 -0.9636  0.5899
14791SOL    HW145814   1.937   7.100   8.169  0.6445 -1.4491  0.6942
14791SOL    HW245815   1.913   7.014   8.292  1.0243 -1.3122  0.8681
14792SOL     OW45816   1.069   0.178   7.198 -0.6404  0.7761 -0.1288
14792SOL    HW145817   1.019   0.180   7.280 -0.9420 -0.0617 -0.2849
14792SOL    HW245818   1.158   0.198   7.225 -1.1013  2.7423  0.0968
14793SOL     OW45819   5.294   5.822   5.893 -0.2663 -0.4828 -0.5910
14793SOL    HW145820   5.248   5.774   5.962 -1.8422  0.4423 -0.9531
14793SOL    HW245821   5.236   5.816   5.817 -0.5247  1.9265 -0.6586
14794SOL     OW45822   1.204   5.868   1.856 -0.5552  0.6553 -0.2463
14794SOL    HW145823   1.153   5.947   1.842 -0.4513  0.7871  0.1214
14794SOL    HW245824   1.202   5.823   1.771  1.1376  2.0820 -1.1116
14795SOL     OW45825   7.382   7.392   2.617  0.3449 -0.0498 -0.1542
14795SOL    HW145826   7.450   7.422   2.557 -1.3337 -1.6372 -3.1295
14795SOL    HW245827   7.421   7.320   2.665  0.7119 -1.2089 -2.1087
14796SOL     OW45828   4.329   2.762   0.714  0.3875  0.2041 -0.1299
14796SOL    HW145829   4.323   2.819   0.791  1.4024 -1.4870  1.2721
14796SOL    HW245830   4.261   2.695   0.728 -0.4535  0.7198 -1.5000
14797SOL     OW45831   3.823   7.323  10.683 -0.1705 -0.4089  0.5334
14797SOL    HW145832   3.820   7.371  10.766 -1.0084 -0.4292  0.5300
14797SOL    HW245833   3.753   7.258  10.691  1.7417 -2.5211  1.0425
14798SOL     OW45834   5.843   6.974   1.000  0.9289 -0.1507 -0.0273
14798SOL    HW145835   5.899   7.050   1.013 -0.6352  0.8119  1.4847
14798SOL    HW245836   5.853   6.924   1.082 -0.2876 -0.0221  0.2154
14799SOL     OW45837   4.610   1.465   6.881 -0.4784 -0.1560  0.1271
14799SOL    HW145838   4.659   1.438   6.959 -0.7496  0.8336  0.6519
14799SOL    HW245839   4.586   1.556   6.897  0.0541  0.2950 -1.4145
14800SOL     OW45840   4.600   0.858   6.175 -0.1767  0.3093  0.9044
14800SOL    HW145841   4.526   0.830   6.122  0.4930 -0.9985  0.5957
14800SOL    HW245842   4.642   0.928   6.124 -0.5109  0.2309  0.5188
14801SOL     OW45843   2.186   2.984   1.539  0.4489 -0.3072  0.0538
14801SOL    HW145844   2.131   2.937   1.476  0.5401  0.4934 -0.6425
14801SOL    HW245845   2.272   2.942   1.532 -0.0513 -1.6088  1.1981
14802SOL     OW45846   4.945   3.502   8.658  0.1788  0.2325 -0.1463
14802SOL    HW145847   4.942   3.447   8.737 -2.7182 -0.6753 -0.7610
14802SOL    HW245848   4.962   3.441   8.587  0.0087  0.6091 -0.5124
14803SOL     OW45849   4.357   2.431  11.229  0.4029  0.0509  0.1395
14803SOL    HW145850   4.393   2.356  11.182  2.2597  1.1789 -0.3449
14803SOL    HW245851   4.432   2.471  11.272 -0.8232  0.6839  1.7779
14804SOL     OW45852   0.631   5.040   6.214  0.2472 -0.1489 -0.2636
14804SOL    HW145853   0.698   4.973   6.222  0.7857  0.4709  0.6009
14804SOL    HW245854   0.675   5.121   6.237 -0.0282  0.7618 -2.6531
14805SOL     OW45855   2.238   4.751   7.743  0.0460  0.5683 -0.4959
14805SOL    HW145856   2.219   4.797   7.825  0.0116  1.3617 -0.9353
14805SOL    HW245857   2.153   4.724   7.710  0.2022 -2.4955  1.2148
14806SOL     OW45858   6.513   3.798   9.325 -0.2834  0.3773  0.2074
14806SOL    HW145859   6.436   3.798   9.269 -0.6654  3.0003  0.6157
14806SOL    HW245860   6.479   3.805   9.414  0.3598  2.4456  0.3510
14807SOL     OW45861   5.848   5.169   8.329  1.0518  0.0553 -0.1552
14807SOL    HW145862   5.841   5.243   8.269 -2.5032  0.7004  0.8336
14807SOL    HW245863   5.886   5.206   8.409  2.3720  0.0012 -0.7304
14808SOL     OW45864   5.427   5.181   9.101 -0.0363  0.6000  0.0072
14808SOL    HW145865   5.418   5.254   9.039  0.5569  2.9964  2.5292
14808SOL    HW245866   5.370   5.205   9.174  0.1864 -1.5157  0.9380
14809SOL     OW45867   5.305   5.009  10.494 -0.4872 -0.3012  0.2138
14809SOL    HW145868   5.248   4.974  10.563 -1.7190 -1.6478 -1.4130
14809SOL    HW245869   5.367   4.939  10.476 -0.7270 -0.3070 -0.6311
14810SOL     OW45870   5.775   5.189   1.892  0.1486 -0.2765 -0.5600
14810SOL    HW145871   5.861   5.205   1.930  0.0350 -2.4845  0.8257
14810SOL    HW245872   5.772   5.094   1.879 -2.0373 -0.2461 -0.6396
14811SOL     OW45873   0.841   6.619   5.878 -0.0203 -0.2764 -0.3222
14811SOL    HW145874   0.753   6.621   5.840  0.0460  0.9105 -0.4576
14811SOL    HW245875   0.890   6.562   5.818 -0.8110 -1.4200  0.0721
14812SOL     OW45876   6.195   1.757   5.376  0.1616  0.5733  0.1677
14812SOL    HW145877   6.244   1.819   5.321 -0.5730 -0.1039 -1.3060
14812SOL    HW245878   6.191   1.677   5.325  0.7892 -0.6313  1.9011
14813SOL     OW45879   7.885   5.046  11.616 -0.2897 -0.8050 -0.5051
14813SOL    HW145880   7.932   4.970  11.649 -0.6979 -1.3695 -1.1856
14813SOL    HW245881   7.793   5.019  11.618 -0.5710  0.1906  0.5787
14814SOL     OW45882   5.333   5.390   3.738 -0.5121 -0.1109 -0.2352
14814SOL    HW145883   5.413   5.337   3.732  0.6043  1.6852 -3.5993
14814SOL    HW245884   5.357   5.464   3.793 -0.5023 -0.5108  0.3128
14815SOL     OW45885   4.206   4.287  12.184  0.0557  0.1307  0.2554
14815SOL    HW145886   4.269   4.350  12.219 -0.3159  0.2287  0.7440
14815SOL    HW245887   4.261   4.217  12.147  0.4560  0.3511  0.4252
14816SOL     OW45888   4.277   7.863   3.088 -0.3140  0.2662 -0.4253
14816SOL    HW145889   4.220   7.935   3.059 -1.5744 -0.8729 -0.8770
14816SOL    HW245890   4.294   7.881   3.180  0.0540  1.5611 -0.7245
14817SOL     OW45891   4.690   7.310   0.586  0.0751  0.1312  0.2139
14817SOL    HW145892   4.627   7.246   0.618 -0.5487  1.3523  1.4944
14817SOL    HW245893   4.774   7.263   0.588 -0.2959 -0.5293  1.5379
14818SOL     OW45894   2.373   0.757   4.130 -0.7425 -0.0975 -0.0214
14818SOL    HW145895   2.423   0.717   4.060  0.1826  0.3371  0.3684
14818SOL    HW245896   2.315   0.688   4.161 -1.7171 -0.0671 -1.7089
14819SOL     OW45897   1.279   1.284   5.419 -0.1412 -0.2135 -0.0849
14819SOL    HW145898   1.324   1.355   5.464 -0.4981 -0.2024  0.2649
14819SOL    HW245899   1.348   1.233   5.377 -0.0343  2.4478 -3.5855
14820SOL     OW45900   2.280   4.938  12.287  0.3677 -0.0296 -0.2088
14820SOL    HW145901   2.295   5.021  12.242  0.2911  0.8620  1.3349
14820SOL    HW245902   2.367   4.899  12.296  0.4388  0.0144 -0.6573
14821SOL     OW45903   4.614   4.512   6.362 -0.1336 -0.0885  0.4163
14821SOL    HW145904   4.659   4.585   6.406  1.2503 -0.9168  0.4268
14821SOL    HW245905   4.618   4.534   6.269  1.4245 -0.7249  0.3029
14822SOL     OW45906   6.727   7.493  10.152 -0.4127  0.0261  0.1860
14822SOL    HW145907   6.650   7.440  10.132  0.8694 -2.4017  1.1510
14822SOL    HW245908   6.729   7.497  10.248  0.6228  0.0616  0.1756
14823SOL     OW45909   0.190   2.240   9.319  0.1946 -0.1986  0.3766
14823SOL    HW145910   0.227   2.237   9.407  0.8623  0.2269  0.1122
14823SOL    HW245911   0.262   2.267   9.263 -0.3001 -0.1819 -0.2654
14824SOL     OW45912   7.910   5.115   7.199 -0.4976  0.2608 -0.5512
14824SOL    HW145913   7.958   5.193   7.171  0.0670  0.2460  0.3541
14824SOL    HW245914   7.896   5.127   7.292 -2.3910  0.3221 -0.8138
14825SOL     OW45915   5.031   7.623   5.350  0.1839  0.2296 -0.3774
14825SOL    HW145916   5.106   7.609   5.408 -1.2334 -0.5762  1.3609
14825SOL    HW245917   5.036   7.551   5.287  0.9293  0.2554 -0.3564
14826SOL     OW45918   2.099   7.084   3.238 -0.2017  0.1699 -0.8048
14826SOL    HW145919   2.086   7.029   3.160 -0.0361  1.0580 -1.4823
14826SOL    HW245920   2.193   7.086   3.251 -0.2987 -1.0647  0.2454
14827SOL     OW45921   4.188   2.389   8.372 -0.0120  0.0792 -0.1475
14827SOL    HW145922   4.179   2.304   8.328 -0.4108  0.7425 -1.3986
14827SOL    HW245923   4.282   2.401   8.382  0.0399 -1.2615  1.6298
14828SOL     OW45924   7.731   0.281   5.717 -0.2549  0.4190 -0.1955
14828SOL    HW145925   7.676   0.358   5.729 -0.2974  0.8395 -2.6099
14828SOL    HW245926   7.696   0.217   5.778  0.0198  2.3685  2.1847
14829SOL     OW45927   7.563   4.893   1.462 -0.8363  0.2126  0.3427
14829SOL    HW145928   7.602   4.884   1.549  1.0882  1.3250 -0.3382
14829SOL    HW245929   7.618   4.958   1.418 -2.6370  0.7743 -1.2226
14830SOL     OW45930   5.191   5.216  10.118  0.1158  0.4226 -0.3261
14830SOL    HW145931   5.260   5.209  10.052  2.0751  0.1185  1.6313
14830SOL    HW245932   5.197   5.134  10.167  0.4719  1.6336  1.7787
14831SOL     OW45933   3.022   2.916   0.635  0.3589  0.2664 -0.6271
14831SOL    HW145934   3.025   2.875   0.721 -1.2275  1.4926  0.0768
14831SOL    HW245935   3.109   2.902   0.598  1.1121 -0.2063  1.2137
14832SOL     OW45936   1.463   6.687  10.857 -0.1169  0.2490  1.2085
14832SOL    HW145937   1.437   6.748  10.925  0.9981  1.7653  0.3220
14832SOL    HW245938   1.546   6.721  10.823 -0.6755 -0.3935 -0.9757
14833SOL     OW45939   7.040   3.677  12.434  0.1494 -0.0562  0.5134
14833SOL    HW145940   7.060   3.583  12.435  0.1347 -0.0804  2.6150
14833SOL    HW245941   7.068   3.706  12.348  2.0224 -1.6133  0.5245
14834SOL     OW45942   1.074   4.853   5.940  0.8186 -0.7363 -0.1264
14834SOL    HW145943   1.079   4.836   6.034  1.0492  0.0637  0.0104
14834SOL    HW245944   1.011   4.925   5.932  0.4076 -1.1425 -0.6316
14835SOL     OW45945   4.404   7.538   0.339  0.4412 -0.2949 -0.6234
14835SOL    HW145946   4.458   7.598   0.287  1.6777  0.3541  1.3027
14835SOL    HW245947   4.427   7.451   0.306  0.1094  0.1565 -2.1074
14836SOL     OW45948   1.959   6.561   3.120 -0.0951 -0.1336  0.1338
14836SOL    HW145949   1.951   6.480   3.070  1.6008 -0.6839  0.6563
14836SOL    HW245950   1.889   6.556   3.185  0.4563 -1.5947  0.6678
14837SOL     OW45951   2.216   0.532   6.096  0.1983  0.3387 -0.4541
14837SOL    HW145952   2.260   0.586   6.031 -0.9792  0.7400 -0.9286
14837SOL    HW245953   2.126   0.564   6.099  0.0506 -0.1047  0.9007
14838SOL     OW45954   4.656   5.442   6.684  0.3831 -0.3717  0.3978
14838SOL    HW145955   4.615   5.365   6.645 -1.4409  0.1572  1.1612
14838SOL    HW245956   4.610   5.516   6.644 -0.0327  0.2238  1.8998
14839SOL     OW45957   0.499   7.648   7.924  0.0763  0.0796 -0.3227
14839SOL    HW145958   0.422   7.593   7.941  2.3800 -3.4249 -0.2192
14839SOL    HW245959   0.519   7.634   7.832  1.6661 -0.6522  0.0965
14840SOL     OW45960   3.857   6.463   2.032 -0.7498 -0.4347  0.2737
14840SOL    HW145961   3.925   6.395   2.032  0.5806  0.8575  0.3134
14840SOL    HW245962   3.816   6.456   2.119 -0.2038 -0.7667  0.5092
14841SOL     OW45963   4.260   2.826   6.022  0.0840  0.3610 -0.2514
14841SOL    HW145964   4.255   2.731   6.009  1.2855  0.1852  0.4337
14841SOL    HW245965   4.195   2.844   6.089 -0.4811  0.0939 -0.7199
14842SOL     OW45966   5.694   2.080   1.245  0.5752  0.7276 -0.4725
14842SOL    HW145967   5.638   2.101   1.320 -0.4967 -2.0182 -0.3948
14842SOL    HW245968   5.777   2.052   1.284  1.1942  2.3544 -0.5091
14843SOL     OW45969   2.903   0.457   5.398  0.6229  0.3846  0.4858
14843SOL    HW145970   2.989   0.500   5.398 -0.0410  1.8214  1.9109
14843SOL    HW245971   2.901   0.408   5.480 -0.0817  0.7398  0.6907
14844SOL     OW45972   7.946   6.451   2.017 -0.1423  0.4740  0.3121
14844SOL    HW145973   7.886   6.382   2.045 -0.7371  0.6365 -0.5360
14844SOL    HW245974   7.898   6.501   1.952  1.5391 -0.5622 -1.8553
14845SOL     OW45975   7.526   1.038   9.222 -0.2045  0.3031 -0.0447
14845SOL    HW145976   7.537   0.948   9.191  2.4846  0.7188 -0.5375
14845SOL    HW245977   7.509   1.029   9.316 -1.7564 -0.7318 -0.3848
14846SOL     OW45978   6.248   4.386   0.078  0.1086  0.5230  0.0218
14846SOL    HW145979   6.157   4.357   0.071  0.0201  0.2410  1.9515
14846SOL    HW245980   6.287   4.329   0.144  1.9679  0.0592 -1.3854
14847SOL     OW45981   3.209   0.742  10.774  0.3148 -0.1223 -0.1694
14847SOL    HW145982   3.273   0.678  10.804 -0.8454 -0.1253  2.6691
14847SOL    HW245983   3.187   0.792  10.853  0.1502  2.8868 -1.9732
14848SOL     OW45984   7.012   6.386   3.256 -0.0283 -0.5593 -0.1343
14848SOL    HW145985   6.997   6.478   3.238  2.8023  0.1914  0.7551
14848SOL    HW245986   6.936   6.359   3.307 -0.6972  1.4021 -0.0002
14849SOL     OW45987   3.766   2.337  11.892 -0.4153  0.1738 -0.3350
14849SOL    HW145988   3.783   2.409  11.953 -1.5019  1.1790 -1.1763
14849SOL    HW245989   3.839   2.341  11.830  0.5399 -0.6711  0.6987
14850SOL     OW45990   6.075   3.578   9.181  0.6923 -0.4037 -0.1219
14850SOL    HW145991   6.054   3.550   9.092  1.4198 -1.8619  0.1295
14850SOL    HW245992   6.031   3.514   9.237  1.2263 -0.2195  0.5187
14851SOL     OW45993   2.309   3.094   9.718 -0.3976 -0.6361 -0.0368
14851SOL    HW145994   2.290   3.113   9.809  1.4259 -0.1512  0.2864
14851SOL    HW245995   2.275   3.006   9.704 -1.6424 -0.3082  0.7869
14852SOL     OW45996   2.103   3.002   9.389  0.3285  0.0919 -0.4231
14852SOL    HW145997   2.093   3.013   9.294 -0.6853 -0.8951 -0.4534
14852SOL    HW245998   2.174   2.938   9.398  1.1085  0.9398 -0.4757
14853SOL     OW45999   2.362   4.463   4.199 -0.3178 -0.0367 -0.5890
14853SOL    HW146000   2.393   4.475   4.109  0.4322 -1.4563 -0.5566
14853SOL    HW246001   2.345   4.369   4.207  0.4180 -0.0830  0.9765
14854SOL     OW46002   6.705   0.901   3.556  0.1797  0.2748  0.3248
14854SOL    HW146003   6.684   0.994   3.547  1.4560  0.5032 -0.7247
14854SOL    HW246004   6.800   0.897   3.547 -0.0174 -1.3342 -1.9552
14855SOL     OW46005   4.430   0.392  11.250 -0.4651 -0.5511 -0.3949
14855SOL    HW146006   4.512   0.400  11.298  0.1402 -0.0020 -1.4765
14855SOL    HW246007   4.362   0.404  11.317  0.3252 -0.8017  0.4806
14856SOL     OW46008   5.646   6.577   8.337 -1.1214  0.2033  0.1687
14856SOL    HW146009   5.606   6.540   8.415  0.3590 -0.5109  0.6349
14856SOL    HW246010   5.655   6.502   8.277 -0.8168  0.4161 -0.0554
14857SOL     OW46011   2.771   5.418   1.348 -0.0130 -0.3104 -0.2569
14857SOL    HW146012   2.834   5.425   1.420 -0.9864 -1.9514  0.8343
14857SOL    HW246013   2.811   5.354   1.288 -0.8668 -1.8657  0.7667
14858SOL     OW46014   0.547   4.108   1.457 -0.3506 -0.4657 -0.1021
14858SOL    HW146015   0.574   4.074   1.542  0.2003 -1.7056 -0.7443
14858SOL    HW246016   0.519   4.030   1.408 -0.7390  0.2327 -1.0268
14859SOL     OW46017   1.321   5.667  11.082  0.5048  0.1165  0.9738
14859SOL    HW146018   1.239   5.679  11.131  0.7130  2.4320  0.8834
14859SOL    HW246019   1.372   5.746  11.102  1.3485  0.2911 -1.5433
14860SOL     OW46020   4.039   2.395   3.326  0.2976 -0.3911  0.1683
14860SOL    HW146021   4.008   2.482   3.350  1.0397  0.1009 -0.6085
14860SOL    HW246022   4.003   2.380   3.238  0.0033 -0.9568  0.3815
14861SOL     OW46023   0.304   2.484   8.403 -0.1767 -0.5173  0.2919
14861SOL    HW146024   0.250   2.434   8.341  1.0336 -1.0635 -0.3609
14861SOL    HW246025   0.347   2.418   8.457 -1.8926 -0.0281  2.3748
14862SOL     OW46026   0.558   7.503  12.224 -0.7348  0.2620  0.2412
14862SOL    HW146027   0.584   7.566  12.156  1.5760 -0.2862  0.5549
14862SOL    HW246028   0.525   7.558  12.295  0.8314  1.1275  0.3397
14863SOL     OW46029   3.990   5.540   5.883 -0.0390  0.9784 -0.5545
14863SOL    HW146030   3.935   5.617   5.892 -0.5914  0.3982  1.3257
14863SOL    HW246031   3.939   5.480   5.828 -0.0291  1.5365 -1.1887
14864SOL     OW46032   7.347   0.279   0.288  0.5952 -0.2531  0.3176
14864SOL    HW146033   7.421   0.244   0.239  0.1715  1.8800 -2.1020
14864SOL    HW246034   7.381   0.293   0.377  2.4215 -1.2424 -0.1770
14865SOL     OW46035   4.075   3.201   2.853 -0.8285 -0.1289  0.7540
14865SOL    HW146036   4.125   3.154   2.919 -1.3119 -0.0472  1.1877
14865SOL    HW246037   3.986   3.204   2.887 -0.9693  0.4144  0.3694
14866SOL     OW46038   0.671   1.076   4.831 -0.5021 -0.6956  0.2160
14866SOL    HW146039   0.736   1.006   4.835  0.5353  0.2013 -0.4207
14866SOL    HW246040   0.676   1.118   4.917  1.1647  0.5525 -0.4304
14867SOL     OW46041   4.754   3.870   8.001 -0.0667 -0.3667 -0.5141
14867SOL    HW146042   4.780   3.790   8.047  0.3880  0.6898  1.1693
14867SOL    HW246043   4.677   3.902   8.049  0.1540  0.5339 -0.7348
14868SOL     OW46044   7.449   7.626  10.023  0.1453  0.3899 -0.5728
14868SOL    HW146045   7.389   7.556   9.998  0.4035 -0.0784  0.1044
14868SOL    HW246046   7.512   7.585  10.081  0.8458  0.9863 -0.8915
14869SOL     OW46047   3.581   4.984   6.078 -0.4969 -0.1450  0.6284
14869SOL    HW146048   3.604   4.949   5.992 -0.8293  0.2974  0.3588
14869SOL    HW246049   3.633   5.065   6.086 -0.7697  0.0242  0.6771
14870SOL     OW46050   6.538   4.049   4.709 -0.1500 -0.3021  0.4854
14870SOL    HW146051   6.546   4.140   4.680 -0.6563 -0.9542 -1.9158
14870SOL    HW246052   6.454   4.046   4.754  0.2876  0.6007  1.3999
14871SOL     OW46053   5.615   6.212   8.676  0.3908 -0.0837 -0.4364
14871SOL    HW146054   5.554   6.168   8.617  0.8315  2.0355 -2.6360
14871SOL    HW246055   5.699   6.212   8.630  0.8569  1.2607  0.3373
14872SOL     OW46056   3.489   3.486   0.001 -0.6886  0.0270 -0.2051
14872SOL    HW146057   3.498   3.580   0.019  2.5637  0.2098 -1.9320
14872SOL    HW246058   3.580   3.454   0.000 -1.7230 -3.5372  1.9849
14873SOL     OW46059   4.198   0.734   0.960  0.3645  0.0793 -0.3971
14873SOL    HW146060   4.210   0.643   0.935 -2.4460 -0.1995 -1.0643
14873SOL    HW246061   4.252   0.745   1.038 -1.9398 -3.2698  1.9422
14874SOL     OW46062   0.773   7.023   9.622  0.6180  0.0742 -0.7551
14874SOL    HW146063   0.723   7.031   9.704  0.5197 -0.3698 -0.7708
14874SOL    HW246064   0.800   7.113   9.603  1.2571  0.0899  0.1423
14875SOL     OW46065   3.254   6.082  11.906 -0.1460 -0.0203 -0.3036
14875SOL    HW146066   3.294   6.150  11.852  0.7879 -0.9986 -0.9043
14875SOL    HW246067   3.168   6.068  11.867  0.3518 -0.4139 -1.3106
14876SOL     OW46068   4.415   5.936   2.974  0.0165 -0.0856  0.2326
14876SOL    HW146069   4.356   5.863   2.956  0.3168 -0.4163  0.5830
14876SOL    HW246070   4.357   6.012   2.980 -0.1687 -0.0239 -1.6046
14877SOL     OW46071   6.682   2.244   7.372 -0.1401  0.4989  0.1726
14877SOL    HW146072   6.709   2.154   7.354 -3.2535 -0.8069  1.3606
14877SOL    HW246073   6.643   2.274   7.290  0.9966  0.8745 -0.2579
14878SOL     OW46074   0.536   2.342   8.790 -0.1767 -0.2390 -0.2331
14878SOL    HW146075   0.604   2.320   8.854  0.1048 -1.6952 -0.9972
14878SOL    HW246076   0.557   2.432   8.763  0.6168 -0.1708  0.5697
14879SOL     OW46077   5.896   4.101   7.340 -0.3723  0.2682  0.2442
14879SOL    HW146078   5.849   4.145   7.410  2.3082  0.2430  2.2326
14879SOL    HW246079   5.929   4.021   7.380  2.6867  1.0692 -0.3959
14880SOL     OW46080   0.674   4.698   3.234  0.0337  0.6182 -0.1666
14880SOL    HW146081   0.598   4.756   3.240  0.0356  0.8827 -1.9547
14880SOL    HW246082   0.640   4.618   3.193  0.7043  0.7704 -1.0666
14881SOL     OW46083   3.368   4.435   4.676 -0.2053 -0.5929 -0.4730
14881SOL    HW146084   3.319   4.482   4.743 -0.5311 -0.5395 -0.7458
14881SOL    HW246085   3.303   4.415   4.609  0.2567 -0.0038 -1.1111
14882SOL     OW46086   0.404   2.797  10.877  0.2330 -0.5479 -0.1962
14882SOL    HW146087   0.384   2.865  10.814 -2.1819  0.4046  1.4778
14882SOL    HW246088   0.488   2.823  10.915  1.2904 -0.6867 -2.2928
14883SOL     OW46089   0.570   1.581   0.827  0.2682  0.5360  0.0192
14883SOL    HW146090   0.531   1.592   0.740 -2.1041  0.1750  0.9349
14883SOL    HW246091   0.535   1.497   0.858 -2.1548  2.3275  2.7281
14884SOL     OW46092   3.174   4.829   1.160  0.1983  0.0128  0.3456
14884SOL    HW146093   3.176   4.734   1.167 -1.3296  0.0602  2.1856
14884SOL    HW246094   3.261   4.857   1.189  0.0297 -0.7680  1.7012
14885SOL     OW46095   6.935   0.930   5.267 -0.1378 -0.0841 -0.0570
14885SOL    HW146096   6.865   0.995   5.272 -0.6776 -0.5486 -1.1162
14885SOL    HW246097   6.893   0.847   5.288  0.1883 -0.3078 -0.2693
14886SOL     OW46098   1.310   0.741  10.071 -0.0858  0.3478 -0.3707
14886SOL    HW146099   1.350   0.659  10.103 -1.1825 -0.3300 -0.6708
14886SOL    HW246100   1.298   0.727   9.977 -1.0750  0.4922 -0.2777
14887SOL     OW46101   2.839   0.204   6.450  0.5280  0.3140 -0.6697
14887SOL    HW146102   2.761   0.260   6.450  1.4054  1.6125 -0.1426
14887SOL    HW246103   2.829   0.147   6.374 -1.2168  0.0252 -0.2455
14888SOL     OW46104   4.425   6.629  12.339  0.2779 -0.4558 -0.0253
14888SOL    HW146105   4.431   6.644  12.244 -3.0079 -0.4760 -0.3602
14888SOL    HW246106   4.346   6.677  12.365  1.1559 -0.3621  2.7730
14889SOL     OW46107   5.398   3.595  10.014 -0.4349  0.1183 -0.0204
14889SOL    HW146108   5.388   3.634  10.100 -2.3114 -1.9939  0.8183
14889SOL    HW246109   5.469   3.645   9.973  1.1447  0.6310  3.0379
14890SOL     OW46110   4.207   2.141   2.529  0.2907  0.0912 -0.3941
14890SOL    HW146111   4.299   2.161   2.546  0.0111  0.7752  0.3628
14890SOL    HW246112   4.161   2.224   2.538 -0.2760 -0.0456 -1.8074
14891SOL     OW46113   5.645   2.988   5.865  0.2264 -0.1591  0.1473
14891SOL    HW146114   5.579   3.000   5.932 -0.2106 -0.8194 -0.1496
14891SOL    HW246115   5.691   2.908   5.890  1.8385  0.9959  1.0919
14892SOL     OW46116   2.343   6.154  11.933  0.2338 -0.1390  0.0811
14892SOL    HW146117   2.286   6.226  11.960  1.7623  0.9701  0.5326
14892SOL    HW246118   2.358   6.104  12.014  2.0349  1.1720  0.6243
14893SOL     OW46119   7.612   1.741   4.725 -0.5298  0.3763  0.3593
14893SOL    HW146120   7.538   1.749   4.664 -0.5011  0.8462  0.3818
14893SOL    HW246121   7.636   1.832   4.745 -1.1216  0.2437  1.7602
14894SOL     OW46122   5.642   5.974   0.809 -0.0409 -0.4534 -0.0098
14894SOL    HW146123   5.653   6.003   0.900  2.5714  0.0531 -0.3991
14894SOL    HW246124   5.716   6.013   0.763 -0.4118 -2.0019 -2.0495
14895SOL     OW46125   2.915   2.002   5.610 -0.1855 -0.4524 -0.0153
14895SOL    HW146126   2.947   1.915   5.584  1.0330 -0.3233  0.9556
14895SOL    HW246127   2.821   1.997   5.599  0.0048 -1.3527 -1.5853
14896SOL     OW46128   6.205   4.819   7.507  0.1409  0.1163  0.2459
14896SOL    HW146129   6.113   4.802   7.530 -0.4357 -0.1132 -1.9800
14896SOL    HW246130   6.254   4.754   7.556 -0.7097  1.0687  2.5158
14897SOL     OW46131   5.515   6.932  11.336 -0.1324  0.3220  0.4217
14897SOL    HW146132   5.458   6.869  11.382 -0.6063  0.9824  0.7489
14897SOL    HW246133   5.459   6.971  11.269  0.0325  0.7336  0.5221
14898SOL     OW46134   3.113   6.835   8.429 -1.1048 -0.0340  0.3229
14898SOL    HW146135   3.164   6.787   8.364 -1.5720  0.2093 -0.2263
14898SOL    HW246136   3.022   6.811   8.411 -1.2407  0.0200  0.8981
14899SOL     OW46137   2.889   4.998  11.707  0.2980 -0.4077  0.0543
14899SOL    HW146138   2.829   5.068  11.685  1.7922  0.4913 -1.3856
14899SOL    HW246139   2.961   5.007  11.644  3.0735  0.0061  3.0466
14900SOL     OW46140   2.980   4.468   5.191 -0.4521  0.1710 -0.0145
14900SOL    HW146141   2.998   4.560   5.173  2.3156 -0.2952 -0.1564
14900SOL    HW246142   2.955   4.431   5.106 -0.1458  0.5272 -0.2647
14901SOL     OW46143   7.781   2.616   7.263 -0.0830  0.2506 -0.0443
14901SOL    HW146144   7.841   2.542   7.252  0.2375  0.0936  2.3225
14901SOL    HW246145   7.736   2.622   7.178  0.7100 -1.8876 -0.7044
14902SOL     OW46146   1.997   6.061   4.811 -0.0544  0.4664  0.2721
14902SOL    HW146147   1.933   6.108   4.864  0.8305  1.5817  0.3827
14902SOL    HW246148   1.969   6.075   4.721  0.1116  1.0800  0.3121
14903SOL     OW46149   7.192   5.647   7.197 -0.0450  0.2394  0.4665
14903SOL    HW146150   7.170   5.563   7.155 -1.1483  1.0245 -0.6037
14903SOL    HW246151   7.261   5.625   7.259 -0.0415 -1.4030 -0.0593
14904SOL     OW46152   6.851   2.406   5.193  0.0372  0.0026 -0.9004
14904SOL    HW146153   6.924   2.459   5.224  0.7327 -1.5343  0.2106
14904SOL    HW246154   6.804   2.463   5.131  0.6115  1.9633  0.3767
14905SOL     OW46155   0.567   1.745   9.812  0.2550 -0.6146 -0.5099
14905SOL    HW146156   0.658   1.714   9.813  0.4683 -0.1142 -1.8123
14905SOL    HW246157   0.533   1.712   9.729 -1.2896 -2.2114  0.6895
14906SOL     OW46158   6.252   2.246   3.696 -0.3579  0.4364 -0.1400
14906SOL    HW146159   6.224   2.337   3.695 -1.5194  0.1588 -2.7945
14906SOL    HW246160   6.345   2.249   3.672  0.4405  1.0130  2.7099
14907SOL     OW46161   6.473   0.194  11.467  0.2530  0.8417  0.4823
14907SOL    HW146162   6.508   0.119  11.514 -0.5867  0.5702  0.6926
14907SOL    HW246163   6.491   0.174  11.375  1.4715  1.1505  0.6461
14908SOL     OW46164   1.722   0.484   2.655 -0.0838  0.1543  0.3740
14908SOL    HW146165   1.642   0.442   2.686 -1.4357  2.3199  0.0833
14908SOL    HW246166   1.696   0.531   2.576  1.3662  1.1882  0.4557
14909SOL     OW46167   1.106   3.005  12.190 -0.1682 -0.0870  0.4963
14909SOL    HW146168   1.199   2.990  12.179 -0.3799 -1.9902  1.0070
14909SOL    HW246169   1.066   2.969  12.111 -0.5209  0.0986  0.5889
14910SOL     OW46170   6.428   1.021   7.101  0.2748  0.3305 -0.4457
14910SOL    HW146171   6.424   0.982   7.014  0.6253 -0.7029 -0.0125
14910SOL    HW246172   6.477   1.102   7.089 -0.6010  0.7478 -1.3911
14911SOL     OW46173   3.320   3.853   0.473 -0.1334  0.4836  0.5568
14911SOL    HW146174   3.386   3.895   0.527  1.0415 -0.3919 -0.1325
14911SOL    HW246175   3.366   3.779   0.432 -1.4825 -0.0237 -0.1215
14912SOL     OW46176   6.951   0.797   7.900  0.2052 -0.1098 -0.0088
14912SOL    HW146177   6.867   0.751   7.900  0.2801 -0.3303 -1.8005
14912SOL    HW246178   6.950   0.848   7.819  2.2879 -1.1024 -0.7439
14913SOL     OW46179   2.699   3.821   9.542  0.1141  0.0578 -0.4666
14913SOL    HW146180   2.741   3.743   9.579  0.2675  0.4246  0.1494
14913SOL    HW246181   2.624   3.788   9.492 -2.6689 -0.2901  3.5049
14914SOL     OW46182   7.455   0.312   3.781  0.3741  0.5349  0.3347
14914SOL    HW146183   7.455   0.384   3.719 -2.1288 -1.1112 -1.8498
14914SOL    HW246184   7.451   0.233   3.726  1.7326 -1.2600  2.5952
14915SOL     OW46185   5.119   6.702   6.945  0.0989  0.0176 -0.0212
14915SOL    HW146186   5.094   6.623   6.992  0.9680 -0.2023  0.0927
14915SOL    HW246187   5.112   6.678   6.853  0.5216 -0.2615  0.0123
14916SOL     OW46188   4.039   1.417   7.513  0.0771  0.1027  0.1305
14916SOL    HW146189   3.943   1.414   7.506  0.0545  0.4966  0.2363
14916SOL    HW246190   4.056   1.396   7.605  0.0044  1.5031  0.4833
14917SOL     OW46191   4.208   2.987  10.851 -0.2066  0.2769 -0.0403
14917SOL    HW146192   4.291   3.030  10.831 -0.3467  0.7930  0.4551
14917SOL    HW246193   4.229   2.894  10.853 -0.1898  0.1582 -2.5899
14918SOL     OW46194   4.606   3.093   6.873 -0.4805  0.4138  0.5103
14918SOL    HW146195   4.698   3.067   6.879  0.0038  2.0333  0.6081
14918SOL    HW246196   4.571   3.080   6.961 -0.9062 -2.0023  0.0549
14919SOL     OW46197   1.476   2.984   6.055 -0.6293  0.2266  0.4873
14919SOL    HW146198   1.533   2.908   6.046  0.1570  0.9597 -1.1290
14919SOL    HW246199   1.401   2.952   6.105 -0.4344 -1.6658 -0.3663
14920SOL     OW46200   0.204   6.871   7.338  0.1196  0.5823  0.6276
14920SOL    HW146201   0.166   6.947   7.296  0.3141  0.0741 -0.5033
14920SOL    HW246202   0.288   6.901   7.371 -0.6631  1.3653  1.9832
14921SOL     OW46203   1.730   4.311   4.098 -0.4002  0.0976 -0.1250
14921SOL    HW146204   1.772   4.232   4.062  0.4033  0.4123  0.1063
14921SOL    HW246205   1.658   4.277   4.151 -1.5462 -0.3966 -1.8794
14922SOL     OW46206   6.507   1.636  10.295 -0.0636 -0.0924 -0.5558
14922SOL    HW146207   6.415   1.663  10.289 -0.3757 -0.5221  1.5747
14922SOL    HW246208   6.538   1.637  10.205 -2.4679 -1.0582 -1.4582
14923SOL     OW46209   3.926   7.504  11.983 -0.1405 -0.3387  0.0241
14923SOL    HW146210   3.963   7.566  11.921 -0.4952 -0.8991 -0.7632
14923SOL    HW246211   3.996   7.488  12.046  0.5687 -0.4897 -0.7773
14924SOL     OW46212   7.841   4.310   3.295  0.3633 -0.2256  0.6760
14924SOL    HW146213   7.902   4.382   3.279 -0.1074  0.3703  1.5145
14924SOL    HW246214   7.765   4.351   3.336 -0.9620 -0.8206 -1.0407
14925SOL     OW46215   6.911   6.727   0.907 -0.0041 -0.2897  0.1500
14925SOL    HW146216   6.841   6.666   0.882 -1.4473  0.7912  1.3986
14925SOL    HW246217   6.945   6.691   0.989  1.6646 -1.3626 -0.9419
14926SOL     OW46218   7.402   3.120  10.589  0.4075  0.1062  0.6540
14926SOL    HW146219   7.349   3.117  10.509  0.1363  0.6783  0.8032
14926SOL    HW246220   7.451   3.202  10.582  1.4966 -0.5503  0.3893
14927SOL     OW46221   4.288   6.159   3.239  0.6971  0.1761  0.8439
14927SOL    HW146222   4.372   6.117   3.225  0.7897  0.5503  0.2745
14927SOL    HW246223   4.278   6.160   3.335  2.3203  2.0489  1.0575
14928SOL     OW46224   2.426   4.454   5.119  0.2052 -0.0024 -0.5215
14928SOL    HW146225   2.351   4.451   5.059 -0.7602 -0.3535  0.6747
14928SOL    HW246226   2.401   4.398   5.192  2.0075 -0.8553 -0.4956
14929SOL     OW46227   4.335   5.286   5.633 -0.2265  0.0638 -0.1758
14929SOL    HW146228   4.265   5.229   5.667 -0.6685 -0.2339 -1.5067
14929SOL    HW246229   4.315   5.372   5.669 -0.2096 -0.3743  0.9411
14930SOL     OW46230   4.521   0.313   4.565 -0.2994  0.1004 -0.4041
14930SOL    HW146231   4.578   0.300   4.641  0.0606  2.5659 -0.1620
14930SOL    HW246232   4.581   0.319   4.491 -0.4816 -0.1718 -0.5739
14931SOL     OW46233   3.210   2.479   6.663 -0.5464 -0.1080  0.2276
14931SOL    HW146234   3.279   2.545   6.652  0.2488 -1.0139 -0.4571
14931SOL    HW246235   3.185   2.456   6.574 -0.3478 -1.1829  0.4346
14932SOL     OW46236   1.259   6.832   7.765  0.4048 -0.3473  0.4246
14932SOL    HW146237   1.330   6.857   7.825  1.1256  1.1101 -0.9479
14932SOL    HW246238   1.286   6.869   7.681 -1.2248 -1.1770 -0.4931
14933SOL     OW46239   4.618   6.503   0.116 -0.2642 -0.1070 -0.1875
14933SOL    HW146240   4.536   6.548   0.098  0.0832  0.6677  0.1381
14933SOL    HW246241   4.638   6.457   0.034 -1.4549 -1.0244  0.0058
14934SOL     OW46242   2.563   3.189   6.765 -0.3116 -0.0013 -0.0279
14934SOL    HW146243   2.495   3.179   6.700 -0.3460 -0.1390  0.0282
14934SOL    HW246244   2.639   3.222   6.716 -0.5086  0.4494 -0.0352
14935SOL     OW46245   1.495   0.922   6.624 -0.3777 -0.0215  0.5691
14935SOL    HW146246   1.587   0.898   6.609 -0.6987 -0.6978 -0.3767
14935SOL    HW246247   1.459   0.847   6.673 -0.8371 -0.5286 -0.5169
14936SOL     OW46248   1.781   5.495   6.567  0.4482  0.4860  0.1737
14936SOL    HW146249   1.836   5.416   6.568  0.5629  0.5467  1.7265
14936SOL    HW246250   1.839   5.564   6.599  1.4909  2.1129 -4.4710
14937SOL     OW46251   1.216   3.044   0.530 -0.5593  0.3139  0.0006
14937SOL    HW146252   1.198   3.138   0.527 -1.6317  0.1003 -1.0762
14937SOL    HW246253   1.308   3.038   0.557 -0.2633  1.6987 -0.6187
14938SOL     OW46254   6.021   7.769   1.741  0.1457  0.3709  0.0480
14938SOL    HW146255   6.051   7.721   1.818  1.5419  0.6096 -0.3064
14938SOL    HW246256   6.015   7.703   1.672  1.5537  0.5681 -0.3042
14939SOL     OW46257   4.498   5.178   2.382 -0.0433  0.0379 -0.1253
14939SOL    HW146258   4.563   5.240   2.414  0.1840  0.7014 -1.8036
14939SOL    HW246259   4.426   5.232   2.350 -1.0039 -0.6600  0.7758
14940SOL     OW46260   4.651   0.410   7.336  0.7106 -0.4112  0.2943
14940SOL    HW146261   4.729   0.436   7.384  1.8646 -2.4788 -0.3121
14940SOL    HW246262   4.685   0.372   7.255 -0.9027 -1.5627  0.1191
14941SOL     OW46263   1.090   3.372  10.695 -0.8131  0.2473  0.7977
14941SOL    HW146264   1.008   3.345  10.654 -0.9480  0.2495  1.0599
14941SOL    HW246265   1.154   3.372  10.624 -1.4606  2.2107  0.1537
14942SOL     OW46266   4.871   7.187   1.140 -0.1042  0.6547  0.1000
14942SOL    HW146267   4.854   7.129   1.066 -0.7371  1.0332 -0.0671
14942SOL    HW246268   4.955   7.228   1.120  0.2668 -0.0628  0.1380
14943SOL     OW46269   1.202   3.091   0.237  0.3127  0.4752 -0.1509
14943SOL    HW146270   1.159   3.047   0.163 -0.2064  0.4731  0.1407
14943SOL    HW246271   1.140   3.159   0.264  0.3429  0.2619  0.4871
14944SOL     OW46272   7.105   1.548   5.660  0.5854 -0.2515  0.0202
14944SOL    HW146273   7.136   1.557   5.750 -1.4517  0.8189  0.6882
14944SOL    HW246274   7.034   1.484   5.664 -0.3133  0.6641 -0.5750
14945SOL     OW46275   6.599   1.615   6.480 -0.4576  0.8469 -0.2533
14945SOL    HW146276   6.690   1.585   6.477  0.0580  2.2359  0.4535
14945SOL    HW246277   6.578   1.640   6.390 -0.1500  0.4704 -0.4273
14946SOL     OW46278   2.202   7.866   8.667 -0.1669  0.1574  0.3030
14946SOL    HW146279   2.278   7.917   8.695  0.7117 -1.6405  1.4105
14946SOL    HW246280   2.223   7.776   8.693 -1.9749 -0.6583 -0.8550
14947SOL     OW46281   4.345   0.590   5.157  0.2179  0.3409  0.2154
14947SOL    HW146282   4.357   0.661   5.220 -0.4667  1.9333 -1.3767
14947SOL    HW246283   4.425   0.591   5.104 -0.1402  0.4921 -0.3353
14948SOL     OW46284   0.509   1.634   7.209  0.2384 -0.4986  0.0054
14948SOL    HW146285   0.490   1.632   7.115  0.4433  0.0223 -0.0500
14948SOL    HW246286   0.510   1.727   7.232 -0.0917 -0.6311  0.5854
14949SOL     OW46287   3.177   3.162   7.176  0.6212  0.5555  0.5147
14949SOL    HW146288   3.170   3.196   7.265 -2.0275  1.9497 -0.1174
14949SOL    HW246289   3.149   3.235   7.120 -0.0553 -1.0050 -1.2936
14950SOL     OW46290   5.192   6.672   0.911  0.7099 -0.2086  0.1216
14950SOL    HW146291   5.162   6.758   0.940 -2.9562 -0.5460 -2.0176
14950SOL    HW246292   5.273   6.690   0.863  0.3673  1.9931  0.2555
14951SOL     OW46293   5.834   2.231  11.721  0.4083  0.0126  0.6310
14951SOL    HW146294   5.876   2.165  11.666  2.2251  0.2611  1.6119
14951SOL    HW246295   5.763   2.184  11.766  0.6529 -0.8592  0.1252
14952SOL     OW46296   1.406   2.930   1.723  0.3790  0.4614  0.3625
14952SOL    HW146297   1.426   2.892   1.808  1.4049  1.3992  0.5681
14952SOL    HW246298   1.344   3.000   1.743  0.1663  0.3025  0.2607
14953SOL     OW46299   3.314   5.003   7.249  0.1171 -0.4540  0.3066
14953SOL    HW146300   3.373   5.078   7.263  1.9534 -1.8840  0.6099
14953SOL    HW246301   3.227   5.042   7.247  1.0014  1.7093  0.3678
14954SOL     OW46302   3.123   4.929   9.180 -0.5687 -0.2836  0.9143
14954SOL    HW146303   3.048   4.917   9.123 -0.4138  3.5300 -0.4051
14954SOL    HW246304   3.086   4.962   9.262 -0.4706 -0.8144  1.1764
14955SOL     OW46305   6.528   1.124   4.497 -0.3157 -0.8840  0.0611
14955SOL    HW146306   6.603   1.175   4.530 -0.0070 -0.6318 -0.9831
14955SOL    HW246307   6.507   1.064   4.569 -0.5324  0.5283  1.2426
14956SOL     OW46308   5.878   2.704   1.433 -0.1263  0.0523 -0.0281
14956SOL    HW146309   5.911   2.662   1.354  0.9921  1.8535 -0.5975
14956SOL    HW246310   5.802   2.754   1.404  0.9218  1.5854 -0.2447
14957SOL     OW46311   4.855   0.202   5.966  0.4254  0.3059  0.1965
14957SOL    HW146312   4.786   0.233   6.025 -0.4733 -0.3934 -0.4692
14957SOL    HW246313   4.901   0.282   5.939 -0.8866  0.9178 -0.2957
14958SOL     OW46314   5.117   1.473  11.382  0.8220  0.5198 -0.3026
14958SOL    HW146315   5.181   1.403  11.395  0.3651 -0.1379 -1.4754
14958SOL    HW246316   5.158   1.531  11.318  1.8949  2.2654  1.8068
14959SOL     OW46317   6.046   4.659   6.214  0.2704 -0.0850  0.1852
14959SOL    HW146318   6.062   4.565   6.223  0.7819  0.0601  0.8472
14959SOL    HW246319   6.132   4.697   6.197  0.0643  0.2606 -0.0879
14960SOL     OW46320   4.231   2.133  11.466  0.4234  0.1856 -0.0508
14960SOL    HW146321   4.143   2.133  11.503 -0.0190 -2.7109 -0.9101
14960SOL    HW246322   4.218   2.125  11.371  1.5949 -0.3147 -0.1886
14961SOL     OW46323   4.237   4.629   0.701  0.0451  0.4304 -0.2441
14961SOL    HW146324   4.229   4.537   0.677 -0.9409  0.7904 -1.4310
14961SOL    HW246325   4.325   4.654   0.674  1.3206 -0.7801  2.4863
14962SOL     OW46326   4.064   5.612  10.364  0.5419 -0.3743 -0.2369
14962SOL    HW146327   4.132   5.560  10.321  1.4166  1.8993 -1.8265
14962SOL    HW246328   4.100   5.633  10.450 -0.4555 -3.4740  1.0584
14963SOL     OW46329   4.351   1.685   0.861  0.3151  0.0299  0.0881
14963SOL    HW146330   4.260   1.671   0.889 -0.0307  1.7639 -0.0730
14963SOL    HW246331   4.366   1.779   0.875  1.9239 -0.1342 -0.3733
14964SOL     OW46332   4.897   5.023  10.621  0.0256  0.0541 -0.1269
14964SOL    HW146333   4.897   4.930  10.645  2.6486  0.3514  1.5197
14964SOL    HW246334   4.921   5.023  10.528 -2.0415 -0.9100 -0.7251
14965SOL     OW46335   5.634   2.099  10.235  0.0314 -0.3566  0.2597
14965SOL    HW146336   5.615   2.079  10.326  0.9009 -2.1262  0.0962
14965SOL    HW246337   5.631   2.014  10.190  2.6353 -0.0096 -0.7639
14966SOL     OW46338   1.286   5.980   2.417  0.2210  0.7521  0.2085
14966SOL    HW146339   1.255   5.927   2.343  2.1070  0.0600 -0.1455
14966SOL    HW246340   1.373   6.011   2.389  1.8790 -1.1383  2.8495
14967SOL     OW46341   7.148   0.850   4.616 -0.6444 -0.2828 -0.0335
14967SOL    HW146342   7.127   0.935   4.655 -1.7547  0.2561 -1.6814
14967SOL    HW246343   7.234   0.862   4.577 -1.4268  0.6035 -1.5593
14968SOL     OW46344   5.847   6.088  10.684 -0.6580  0.2086  0.4247
14968SOL    HW146345   5.886   6.147  10.749 -0.9764 -0.3627  1.1429
14968SOL    HW246346   5.850   6.138  10.602  0.3619  0.6845  0.7289
14969SOL     OW46347   5.519   0.392   2.123 -0.4557 -0.2768 -0.1803
14969SOL    HW146348   5.435   0.419   2.160  0.1100  3.5760 -1.3450
14969SOL    HW246349   5.579   0.462   2.147  1.1737 -0.2635 -3.7533
14970SOL     OW46350   5.488   4.861   2.660 -0.5488  0.0478  0.4619
14970SOL    HW146351   5.477   4.776   2.703 -0.9591  0.2544  0.7684
14970SOL    HW246352   5.399   4.890   2.640 -0.4095  0.3944  0.3318
14971SOL     OW46353   1.000   6.158  11.700 -0.4744 -0.0768 -0.2080
14971SOL    HW146354   1.065   6.117  11.644 -2.0668  0.4137 -2.5868
14971SOL    HW246355   0.970   6.088  11.758  0.3407 -0.9625 -0.8274
14972SOL     OW46356   7.945   0.064   4.940  0.3378 -0.2896 -0.4617
14972SOL    HW146357   7.951  -0.011   4.881  1.5552 -0.4561 -0.1463
14972SOL    HW246358   7.933   0.025   5.027  0.8149 -0.1142 -0.3178
14973SOL     OW46359   1.394   0.364   1.100 -0.0120  0.2653  0.1626
14973SOL    HW146360   1.319   0.352   1.042 -2.2839 -0.1896  2.9919
14973SOL    HW246361   1.391   0.457   1.125 -0.9511 -0.1789  1.8495
14974SOL     OW46362   2.457   5.074   1.562  0.5792 -0.2077  0.3804
14974SOL    HW146363   2.483   5.124   1.485  0.0767  0.9713  0.9604
14974SOL    HW246364   2.536   5.070   1.616  0.0375  2.1549  1.4842
14975SOL     OW46365   2.414   4.670   0.003 -0.4739  0.1018 -0.1799
14975SOL    HW146366   2.479   4.730  -0.032 -1.5461  0.7769 -1.0581
14975SOL    HW246367   2.341   4.726   0.029 -0.2672 -0.5177  1.9041
14976SOL     OW46368   5.619   1.003   9.126 -0.0103  0.0909 -0.4701
14976SOL    HW146369   5.628   1.049   9.209 -1.4715  0.5834 -0.5560
14976SOL    HW246370   5.708   0.983   9.100  0.4831 -2.8168  2.7223
14977SOL     OW46371   3.467   1.039   0.507  0.1196  0.6791 -0.2268
14977SOL    HW146372   3.381   1.020   0.546  0.0939  0.1421 -0.5240
14977SOL    HW246373   3.463   1.131   0.484 -0.5032  0.5866 -0.5272
14978SOL     OW46374   6.712   0.944   3.049 -0.6848 -0.2331  0.2178
14978SOL    HW146375   6.701   0.902   2.964  2.0365 -0.7309 -0.0000
14978SOL    HW246376   6.720   0.871   3.111  0.6857 -0.0063  0.3483
14979SOL     OW46377   7.209   4.041   9.891 -0.2099 -0.2674 -0.1647
14979SOL    HW146378   7.136   4.064   9.948 -0.0194 -1.6569  0.6833
14979SOL    HW246379   7.282   4.022   9.951  0.4439 -0.2657 -0.9392
14980SOL     OW46380   3.546   3.871   0.623  0.3502  0.5882  0.2125
14980SOL    HW146381   3.511   3.787   0.652 -1.1727  0.3429 -2.0346
14980SOL    HW246382   3.618   3.849   0.564 -1.9099  0.5582 -2.7910
14981SOL     OW46383   0.708   4.795   4.276  0.1968  0.0620 -0.7186
14981SOL    HW146384   0.768   4.782   4.203 -0.1768  1.0130 -1.2109
14981SOL    HW246385   0.753   4.857   4.334 -0.9465  2.1643 -1.9338
14982SOL     OW46386   0.014   0.209   6.811  0.2397 -0.2127 -0.5944
14982SOL    HW146387   0.044   0.299   6.815 -0.6160  0.0543  0.4911
14982SOL    HW246388  -0.082   0.215   6.808  0.1880 -1.0746 -1.4712
14983SOL     OW46389   6.390   0.342   6.756 -0.0749  0.0562  0.0308
14983SOL    HW146390   6.323   0.375   6.816 -0.1626 -1.2880  0.7200
14983SOL    HW246391   6.342   0.319   6.677 -0.1955  0.4237 -0.0072
14984SOL     OW46392   2.131   5.243   2.172  0.0174 -0.5277 -0.4094
14984SOL    HW146393   2.167   5.225   2.259 -0.7545  0.9904  0.2538
14984SOL    HW246394   2.061   5.179   2.161 -0.4998 -0.1339  0.4963
14985SOL     OW46395   0.804   4.955   7.512  0.4989 -0.2112 -0.1413
14985SOL    HW146396   0.827   4.863   7.519  0.6515 -0.2351 -0.8823
14985SOL    HW246397   0.860   4.999   7.576  1.3388 -0.4902 -0.6626
14986SOL     OW46398   6.049   2.334   9.194  0.4321 -0.3714  0.1078
14986SOL    HW146399   6.085   2.254   9.155 -1.1808 -2.0983  1.9202
14986SOL    HW246400   5.981   2.362   9.132  1.7531  0.3188 -1.0919
14987SOL     OW46401   6.429   0.664  12.142 -0.1174  0.2035 -0.0522
14987SOL    HW146402   6.409   0.757  12.154 -0.4299  0.3456 -1.4933
14987SOL    HW246403   6.473   0.660  12.057  1.3124 -0.7814  0.7006
14988SOL     OW46404   0.805   0.348   0.086  0.3704 -0.1665  0.1510
14988SOL    HW146405   0.809   0.310   0.173  0.3917 -1.1976 -0.2893
14988SOL    HW246406   0.769   0.436   0.100  0.7168 -0.1827  1.2272
14989SOL     OW46407   2.358   4.132   5.732  0.2880  0.2056 -0.0283
14989SOL    HW146408   2.279   4.146   5.783  0.4680  0.5262  0.1697
14989SOL    HW246409   2.381   4.041   5.746  1.5536  0.7949  2.2301
14990SOL     OW46410   1.035   2.980   5.818  0.4726  0.0627  0.0836
14990SOL    HW146411   1.084   2.898   5.813 -0.3591 -0.4521 -0.0084
14990SOL    HW246412   1.099   3.046   5.841  1.4685 -0.3382 -1.3931
14991SOL     OW46413   5.713   1.035   9.570 -0.6099  0.3102 -0.8722
14991SOL    HW146414   5.721   1.016   9.664  1.8525 -0.2813 -1.1374
14991SOL    HW246415   5.668   0.959   9.534 -0.1267 -0.2077 -0.4016
14992SOL     OW46416   4.285   1.545   4.580  0.3759 -0.0777 -0.4319
14992SOL    HW146417   4.338   1.572   4.655 -0.5221 -1.2541  0.6651
14992SOL    HW246418   4.234   1.624   4.557 -0.6593 -0.1690  1.3773
14993SOL     OW46419   0.522   2.252  10.171 -0.0564 -0.1642 -0.1844
14993SOL    HW146420   0.567   2.270  10.253 -0.8753 -2.6736  0.9008
14993SOL    HW246421   0.555   2.319  10.111 -0.0179  2.2481  2.3327
14994SOL     OW46422   3.148   7.851   7.501 -0.2987 -0.0538  0.3462
14994SOL    HW146423   3.062   7.871   7.464  0.1569  0.0512 -0.6684
14994SOL    HW246424   3.191   7.937   7.509  1.1369 -0.3767 -2.7204
14995SOL     OW46425   2.327   2.293   7.159  0.1432  0.2586 -0.2814
14995SOL    HW146426   2.343   2.201   7.182  0.5256 -0.0512 -1.6894
14995SOL    HW246427   2.300   2.334   7.241 -1.2960 -1.4040  0.1442
14996SOL     OW46428   6.518   5.296   4.999  0.3809 -0.5987  0.0058
14996SOL    HW146429   6.424   5.281   5.010  0.5017 -0.3332  1.5614
14996SOL    HW246430   6.525   5.343   4.916 -1.0874  1.4369  0.9541
14997SOL     OW46431   6.233   1.945   3.372  0.9124 -0.5043 -0.7039
14997SOL    HW146432   6.192   1.882   3.312  0.0302 -1.3826  0.7643
14997SOL    HW246433   6.202   2.030   3.341 -0.6508 -1.0319 -0.6983
14998SOL     OW46434   4.945   2.600   7.813  0.6019  0.4061  0.7252
14998SOL    HW146435   4.860   2.589   7.770  0.8964 -2.1942  0.6356
14998SOL    HW246436   5.007   2.608   7.741  0.8673 -2.0037  0.6090
14999SOL     OW46437   2.076   5.245   6.026  0.4852 -0.4859 -0.8663
14999SOL    HW146438   2.032   5.169   5.987 -0.3919 -0.9656  0.9659
14999SOL    HW246439   2.165   5.214   6.042 -0.3304 -1.8532  1.5704
15000SOL     OW46440   4.097   7.547   1.425 -0.0372 -0.5896 -0.3383
15000SOL    HW146441   4.164   7.606   1.458  0.2188 -0.5115 -0.9732
15000SOL    HW246442   4.107   7.551   1.330 -0.9206 -0.6060 -0.4350
15001SOL     OW46443   0.657   0.573   6.041  0.3304 -0.1568 -0.5861
15001SOL    HW146444   0.706   0.522   6.106 -0.2741 -0.5560 -0.4315
15001SOL    HW246445   0.574   0.526   6.032 -0.6990  1.3945  0.3612
15002SOL     OW46446   0.261   5.730   2.152  0.0556  0.1299 -0.1262
15002SOL    HW146447   0.221   5.784   2.084  1.4452  2.0557  0.5161
15002SOL    HW246448   0.271   5.644   2.112  1.4429  1.3671 -2.6411
15003SOL     OW46449   6.412   5.242   1.208  0.3348  0.2186  0.0925
15003SOL    HW146450   6.408   5.165   1.265 -1.3407  0.4801  0.3843
15003SOL    HW246451   6.438   5.207   1.123 -1.0109 -0.8095  0.0657
15004SOL     OW46452   1.234   3.407  10.459 -0.0627 -0.8235  0.1062
15004SOL    HW146453   1.293   3.332  10.449  3.0750  1.5570 -0.8797
15004SOL    HW246454   1.292   3.483  10.462 -3.1154  1.7559 -0.4956
15005SOL     OW46455   2.012   2.263   2.471  0.1705 -0.2134  0.1758
15005SOL    HW146456   2.081   2.305   2.524  1.0402 -1.0502 -0.2601
15005SOL    HW246457   2.053   2.251   2.385 -0.1955 -1.5984  0.1885
15006SOL     OW46458   4.245   1.420  11.662 -0.1442  0.7363 -1.1028
15006SOL    HW146459   4.325   1.409  11.713  0.4020  2.1519 -1.6040
15006SOL    HW246460   4.175   1.427  11.727  0.1879 -0.0192 -0.6486
15007SOL     OW46461   6.035   1.450   7.547 -0.0361 -0.2009 -0.0698
15007SOL    HW146462   6.046   1.519   7.482  0.1202 -0.7149 -0.5994
15007SOL    HW246463   6.058   1.370   7.501 -0.7394 -0.6750  0.3802
15008SOL     OW46464   6.341   0.060   6.082 -0.8547 -0.0294  0.4689
15008SOL    HW146465   6.279   0.053   6.155 -0.2181 -0.0049  1.0275
15008SOL    HW246466   6.365   0.152   6.080  0.1977 -0.2755  1.1474
15009SOL     OW46467   3.842   5.316   9.608 -0.1863 -0.1966 -0.4623
15009SOL    HW146468   3.785   5.251   9.565 -1.0706  0.4217 -0.2601
15009SOL    HW246469   3.810   5.400   9.576 -0.0820  0.2135  0.4830
15010SOL     OW46470   5.804   4.402   2.283  0.2230 -0.3526  0.7664
15010SOL    HW146471   5.764   4.487   2.265  1.6672  0.3750  0.8999
15010SOL    HW246472   5.738   4.356   2.335 -1.7850 -0.4418 -1.6533
15011SOL     OW46473   4.660   3.759   7.151 -0.3670  0.1456 -0.3415
15011SOL    HW146474   4.566   3.748   7.142 -0.3417 -2.0865  1.2196
15011SOL    HW246475   4.686   3.695   7.218  2.0852  1.5186  0.1740
15012SOL     OW46476   4.735   3.161  10.168 -0.0126 -0.3176  0.1065
15012SOL    HW146477   4.730   3.091  10.232  0.0766  0.3799  0.8929
15012SOL    HW246478   4.672   3.136  10.099 -0.0315 -1.1179  0.4141
15013SOL     OW46479   5.534   3.185   3.629  0.2420  0.4885  0.0221
15013SOL    HW146480   5.532   3.094   3.600  1.6239  0.5542 -0.3489
15013SOL    HW246481   5.506   3.181   3.721  1.3866 -0.4666  0.3537
15014SOL     OW46482   1.684   7.556   9.261 -0.0416  0.2966  0.4364
15014SOL    HW146483   1.715   7.549   9.352  0.1866 -0.2015  0.3221
15014SOL    HW246484   1.657   7.647   9.252  1.5250  0.7903  0.4951
15015SOL     OW46485   5.113   6.424   0.657 -0.4145  0.4350  0.4318
15015SOL    HW146486   5.203   6.446   0.631 -0.0295  1.5064  2.5010
15015SOL    HW246487   5.114   6.328   0.665 -0.0707  0.2279 -1.5653
15016SOL     OW46488   0.629   3.505  12.328  0.0934  0.4558  0.1918
15016SOL    HW146489   0.636   3.502  12.233 -0.3689 -2.4579  0.1548
15016SOL    HW246490   0.719   3.490  12.359 -0.1471 -1.2593  0.1389
15017SOL     OW46491   6.486   7.720  12.347 -0.3290  0.6081  0.0022
15017SOL    HW146492   6.504   7.724  12.441 -0.3457  0.8812 -0.0042
15017SOL    HW246493   6.511   7.807  12.314  1.3492 -0.0622 -0.5531
15018SOL     OW46494   2.488   2.164   0.081  0.5240 -0.1407 -0.1942
15018SOL    HW146495   2.405   2.156   0.129 -0.5202  1.8681 -1.5360
15018SOL    HW246496   2.484   2.095   0.016  0.4359 -0.7729  0.4660
15019SOL     OW46497   6.903   1.543   4.857  0.5118 -0.1480 -0.1236
15019SOL    HW146498   6.864   1.496   4.931  0.4097  0.6878  0.3750
15019SOL    HW246499   6.938   1.624   4.896 -0.3463  0.7370 -1.1291
15020SOL     OW46500   4.391   6.917   5.684  0.4041 -0.5897  0.0823
15020SOL    HW146501   4.313   6.968   5.661  0.3778 -0.5156  0.3380
15020SOL    HW246502   4.357   6.835   5.718  0.2973  0.7649  3.5972
15021SOL     OW46503   3.348   7.936  11.203 -0.3928 -0.0314  0.0082
15021SOL    HW146504   3.392   8.006  11.154  0.0921 -0.0053  0.4810
15021SOL    HW246505   3.260   7.972  11.221 -0.5345  0.0093 -0.7229
15022SOL     OW46506   4.713   0.947   3.979  0.2652  0.2656  0.1053
15022SOL    HW146507   4.624   0.974   3.999 -0.0339 -0.1977 -0.5792
15022SOL    HW246508   4.767   0.991   4.045 -0.5411 -0.0807  1.0239
15023SOL     OW46509   2.088   1.265   1.201  0.7656 -0.5960 -1.0444
15023SOL    HW146510   2.069   1.187   1.148  0.0501 -0.8641 -0.4080
15023SOL    HW246511   2.002   1.302   1.220  1.0939  0.2748 -1.2107
15024SOL     OW46512   0.403   7.939   7.075  0.3587  0.0280  0.2261
15024SOL    HW146513   0.433   7.876   7.009  1.9455  1.1237 -0.1530
15024SOL    HW246514   0.462   7.927   7.149 -0.7906 -0.4937  1.0978
15025SOL     OW46515   5.462   0.159   4.199 -0.0398  0.2986 -0.4530
15025SOL    HW146516   5.547   0.187   4.235 -0.7588  1.5269  0.3527
15025SOL    HW246517   5.479   0.071   4.165  1.3560  0.1713  0.4713
15026SOL     OW46518   5.875   7.572  10.289 -0.0455  0.1302  0.0830
15026SOL    HW146519   5.830   7.641  10.338 -0.3062 -0.9178  1.3762
15026SOL    HW246520   5.968   7.588  10.306 -0.0853  0.3475  0.1106
15027SOL     OW46521   2.543   0.472   2.820 -0.0834 -0.1560  0.1863
15027SOL    HW146522   2.605   0.401   2.835  0.4158  0.5150  1.4712
15027SOL    HW246523   2.562   0.502   2.731 -0.6581 -1.9239 -0.5848
15028SOL     OW46524   2.310   7.584  11.673 -0.5782 -0.1655  0.1004
15028SOL    HW146525   2.229   7.536  11.661 -0.4045 -0.0188 -2.0440
15028SOL    HW246526   2.357   7.535  11.741 -1.3676 -1.7280 -0.4312
15029SOL     OW46527   2.259   2.637   6.902 -0.0445  0.0741 -0.0230
15029SOL    HW146528   2.223   2.638   6.991  0.3276 -0.4590  0.1363
15029SOL    HW246529   2.191   2.597   6.849 -0.2589  0.3710  0.0269
15030SOL     OW46530   3.905   4.754   9.022 -0.1544  0.1304  0.2079
15030SOL    HW146531   3.952   4.683   8.978 -0.7875 -0.0628 -0.1670
15030SOL    HW246532   3.821   4.716   9.047 -0.5148  0.7582 -0.0339
15031SOL     OW46533   5.708   3.208   4.500 -0.0228  0.5198  0.1661
15031SOL    HW146534   5.657   3.153   4.440  0.5344  0.0152  0.1448
15031SOL    HW246535   5.715   3.292   4.456  0.1541  0.2320 -0.3563
15032SOL     OW46536   7.192   1.810   9.559  0.0245 -0.2043  0.0159
15032SOL    HW146537   7.230   1.873   9.620  0.8116 -1.3036  0.6929
15032SOL    HW246538   7.265   1.787   9.501 -0.0963 -0.9644  0.1683
15033SOL     OW46539   1.775   0.926   4.665  0.0901  0.1313  0.5324
15033SOL    HW146540   1.784   0.841   4.708  2.9008 -0.0915 -0.3514
15033SOL    HW246541   1.722   0.908   4.587  1.4182 -1.0340 -0.1349
15034SOL     OW46542   3.149   3.261   0.892 -0.4548  0.0779 -0.0505
15034SOL    HW146543   3.232   3.287   0.853 -1.3767  0.2189 -2.0194
15034SOL    HW246544   3.171   3.186   0.947  1.2050  1.0782  0.7238
15035SOL     OW46545   2.478   2.160   9.893  0.1214  0.3100 -0.4033
15035SOL    HW146546   2.400   2.208   9.921 -0.0214  0.5579 -1.2064
15035SOL    HW246547   2.449   2.105   9.821  0.5356 -0.1494 -0.2304
15036SOL     OW46548   6.969   4.291   1.492 -0.4143 -0.1807 -0.7363
15036SOL    HW146549   6.909   4.348   1.541 -0.3364 -1.5514  1.0546
15036SOL    HW246550   6.912   4.225   1.453 -0.2981 -0.0686 -1.1012
15037SOL     OW46551   0.880   1.264   1.378  0.1496  0.1214  0.7343
15037SOL    HW146552   0.812   1.321   1.344  0.0765  0.6621  1.7264
15037SOL    HW246553   0.944   1.325   1.417  1.9249 -0.2642 -1.3659
15038SOL     OW46554   5.498   0.034  11.731 -0.2317 -0.2718 -0.5472
15038SOL    HW146555   5.469  -0.056  11.748 -1.9162  0.2924 -0.2973
15038SOL    HW246556   5.474   0.050  11.640 -1.4660  0.4600 -0.1115
15039SOL     OW46557   0.288   2.387   0.527 -0.0032  0.0675 -0.3639
15039SOL    HW146558   0.360   2.331   0.499  0.6899  1.7270 -2.1246
15039SOL    HW246559   0.315   2.421   0.613 -0.3544 -2.0350  0.6462
15040SOL     OW46560   7.760   5.996  11.920  0.0123 -0.4101 -0.0685
15040SOL    HW146561   7.665   5.996  11.911  0.1210  1.1581 -1.8192
15040SOL    HW246562   7.776   5.968  12.010 -2.0028 -2.6510 -0.3142
15041SOL     OW46563   6.539   7.415   7.324  0.4864 -0.0511 -0.6416
15041SOL    HW146564   6.626   7.385   7.299  1.8213  2.6411  0.4639
15041SOL    HW246565   6.506   7.346   7.382  1.0400 -2.0083 -2.5467
15042SOL     OW46566   2.084   2.277   5.716 -0.0187  0.0507 -0.0983
15042SOL    HW146567   2.145   2.294   5.644  0.3296  1.1862  0.4355
15042SOL    HW246568   2.044   2.363   5.734 -1.7359 -0.6387 -0.3758
15043SOL     OW46569   6.982   1.316   5.601 -0.2908  0.1232 -0.1895
15043SOL    HW146570   6.972   1.256   5.675 -1.1531  0.6592  0.1325
15043SOL    HW246571   7.047   1.273   5.545 -0.2830 -0.7131  0.4395
15044SOL     OW46572   4.681   7.237  12.226  0.1104  0.3838  0.5176
15044SOL    HW146573   4.734   7.306  12.187  0.7632 -0.4740 -0.1428
15044SOL    HW246574   4.615   7.217  12.159  0.2442  0.0118  0.4968
15045SOL     OW46575   0.640   6.770   9.567  0.1721 -0.0829  0.2138
15045SOL    HW146576   0.676   6.852   9.601 -2.2033  0.1465  2.4437
15045SOL    HW246577   0.632   6.713   9.643 -0.5675 -1.4929 -0.8610
15046SOL     OW46578   0.551   7.599   1.764  0.1830 -0.3060 -0.0201
15046SOL    HW146579   0.525   7.688   1.787  0.6093 -0.4940  1.2958
15046SOL    HW246580   0.539   7.593   1.669  2.7618  2.0308 -0.6113
15047SOL     OW46581   4.283   4.904   4.151  0.2815  0.4071 -0.4374
15047SOL    HW146582   4.264   4.996   4.171 -1.8908 -0.2836  1.1021
15047SOL    HW246583   4.348   4.878   4.216  0.2268  0.6242 -0.2948
15048SOL     OW46584   1.886   2.303   8.822 -0.1638  0.3311  0.2931
15048SOL    HW146585   1.937   2.240   8.770 -0.0265 -0.9638  1.9111
15048SOL    HW246586   1.937   2.384   8.818  0.9260 -0.3382  0.1347
15049SOL     OW46587   3.713   5.400  11.312  0.4153  0.1960  0.9566
15049SOL    HW146588   3.737   5.486  11.348 -0.8601  1.2482 -0.5346
15049SOL    HW246589   3.786   5.376  11.255  0.8544  0.1927  1.5085
15050SOL     OW46590   2.511   6.079   6.342 -0.0432  0.2838 -0.1829
15050SOL    HW146591   2.547   6.164   6.317  1.4877 -0.8455 -2.0979
15050SOL    HW246592   2.430   6.071   6.291 -1.1382  1.2284  1.2897
15051SOL     OW46593   1.983   3.793  11.589  0.1365  0.0585  0.0435
15051SOL    HW146594   2.026   3.761  11.509  1.4286 -1.9391  1.4372
15051SOL    HW246595   2.030   3.751  11.660 -1.7146  0.8546  1.8513
15052SOL     OW46596   3.582   2.817   4.730  0.0675 -0.3787 -0.2313
15052SOL    HW146597   3.563   2.880   4.660 -0.7831  0.1356  0.4471
15052SOL    HW246598   3.502   2.814   4.782  0.8238 -0.4675  0.9482
15053SOL     OW46599   5.733   0.126   1.448  0.3851  0.4825 -0.1539
15053SOL    HW146600   5.756   0.218   1.459 -0.4256  0.6170  0.4725
15053SOL    HW246601   5.673   0.107   1.519  2.7259 -1.3260  1.4926
15054SOL     OW46602   7.684   6.831   4.372 -0.2296  0.5212 -0.0986
15054SOL    HW146603   7.700   6.849   4.465  0.1614 -0.9147  0.1258
15054SOL    HW246604   7.649   6.914   4.338 -3.9694  0.1161  2.1518
15055SOL     OW46605   6.267   3.026   9.240  0.0292 -0.1392 -0.1984
15055SOL    HW146606   6.288   3.006   9.332 -2.2612  1.5070  0.7643
15055SOL    HW246607   6.315   3.106   9.222 -0.0826 -0.0747 -0.2077
15056SOL     OW46608   4.408   6.944   8.403 -0.0395 -0.4839 -0.4743
15056SOL    HW146609   4.478   6.884   8.430  1.7290  1.0036 -1.5837
15056SOL    HW246610   4.405   6.936   8.308 -1.3720 -0.4660 -0.4468
15057SOL     OW46611   3.048   7.711  10.520 -0.9245 -0.1147  0.5975
15057SOL    HW146612   3.080   7.763  10.594 -0.4639 -0.0531  0.3574
15057SOL    HW246613   3.055   7.620  10.550 -1.1281 -0.0722  0.7788
15058SOL     OW46614   4.520   6.101   1.616  0.0659 -0.2971  0.1084
15058SOL    HW146615   4.539   6.026   1.672  2.3101  0.9204  1.0999
15058SOL    HW246616   4.446   6.145   1.658  1.3094  0.2375  1.8420
15059SOL     OW46617   6.939   3.286   0.606  0.1500 -0.1967 -0.2550
15059SOL    HW146618   6.904   3.255   0.522 -0.4694 -0.3739  0.0718
15059SOL    HW246619   6.933   3.382   0.600 -0.0671 -0.2148 -0.3387
15060SOL     OW46620   7.053   1.561   5.387  0.3164 -0.1839  0.4756
15060SOL    HW146621   7.072   1.547   5.480  0.4912 -1.3081  0.2787
15060SOL    HW246622   6.985   1.497   5.366 -0.0001  0.3226 -0.0854
15061SOL     OW46623   5.556   1.263   4.514  0.6602  0.3117 -0.5018
15061SOL    HW146624   5.485   1.295   4.458  0.9204 -0.0397 -1.0407
15061SOL    HW246625   5.580   1.338   4.568 -1.3191 -0.0384  0.9589
15062SOL     OW46626   3.394   7.218  10.489  0.0033 -0.2231 -0.2204
15062SOL    HW146627   3.343   7.286  10.534 -1.4534 -0.2000 -1.7969
15062SOL    HW246628   3.414   7.255  10.403  4.6833  0.6184  0.9732
15063SOL     OW46629   6.230   7.855   5.891  0.9218  0.3154 -0.7957
15063SOL    HW146630   6.262   7.931   5.938  0.9139  0.1171 -0.4635
15063SOL    HW246631   6.150   7.886   5.848  0.9597  0.5156 -0.7239
15064SOL     OW46632   5.627   5.025   7.092  0.3836 -0.0078  0.4136
15064SOL    HW146633   5.706   4.974   7.077  0.8475  0.8571 -0.1933
15064SOL    HW246634   5.555   4.970   7.060  0.3548 -2.0422  3.5851
15065SOL     OW46635   2.219   1.795  12.246 -0.0379 -0.8137  0.4169
15065SOL    HW146636   2.283   1.803  12.175  0.2706 -0.9365  0.6764
15065SOL    HW246637   2.142   1.842  12.215  1.6482  3.3789  1.8681
15066SOL     OW46638   4.518   1.507   5.968 -0.1087 -0.1640 -0.3032
15066SOL    HW146639   4.602   1.468   5.944  0.5594  0.6404  0.6379
15066SOL    HW246640   4.483   1.450   6.036 -0.2445 -0.4060 -0.5757
15067SOL     OW46641   4.773   4.706   5.885  0.2632  0.0102 -0.0610
15067SOL    HW146642   4.858   4.714   5.843  0.2262  0.4994 -0.0466
15067SOL    HW246643   4.722   4.780   5.853 -0.3903 -0.6566 -0.5951
15068SOL     OW46644   2.064   1.005   7.618 -0.2801 -0.4047  0.0621
15068SOL    HW146645   2.127   1.073   7.641  0.6349 -1.4006  0.6172
15068SOL    HW246646   2.098   0.966   7.538 -1.1467  0.2031 -0.6157
15069SOL     OW46647   1.420   0.060  11.765 -0.3942 -0.0902 -0.6283
15069SOL    HW146648   1.367   0.062  11.845 -1.2161 -1.3138 -1.1156
15069SOL    HW246649   1.491  -0.001  11.785 -0.6882 -0.5187 -0.8720
15070SOL     OW46650   5.097   4.499   0.922 -0.3219 -0.5104  0.4974
15070SOL    HW146651   5.080   4.497   0.828 -1.8842 -0.9915  0.7613
15070SOL    HW246652   5.138   4.584   0.937  1.1454 -0.9559 -0.7846
15071SOL     OW46653   2.795   3.406   2.496 -0.2249 -0.3069 -0.0775
15071SOL    HW146654   2.888   3.401   2.474 -0.2672  0.7133 -0.5617
15071SOL    HW246655   2.751   3.416   2.412 -0.7157 -0.1712  0.1907
15072SOL     OW46656   5.379   5.434   7.054 -0.1879 -0.0123  0.4949
15072SOL    HW146657   5.387   5.356   7.107  0.9456 -0.5546 -0.4157
15072SOL    HW246658   5.464   5.442   7.009 -1.2042  0.1714 -1.5352
15073SOL     OW46659   5.728   4.974   7.591 -0.0527 -0.2332 -0.7074
15073SOL    HW146660   5.685   4.964   7.676  2.0172  0.5354  0.5180
15073SOL    HW246661   5.657   4.970   7.528 -1.7755 -0.1000  1.1019
15074SOL     OW46662   4.484   0.171  11.121 -0.0130  0.2043 -0.2715
15074SOL    HW146663   4.568   0.190  11.080  0.6338 -0.7295  0.5538
15074SOL    HW246664   4.459   0.253  11.164  1.8773 -0.2146  1.8109
15075SOL     OW46665   5.992   6.782  10.505  0.1403  0.9946 -0.7224
15075SOL    HW146666   5.963   6.841  10.575  0.0671  0.8392 -0.6210
15075SOL    HW246667   6.069   6.738  10.541 -1.0480 -0.5612  0.0403
15076SOL     OW46668   2.535   4.507   9.775 -0.1282 -0.4553 -0.7077
15076SOL    HW146669   2.609   4.568   9.774 -1.1577  0.8860  0.0279
15076SOL    HW246670   2.522   4.483   9.684  1.0817 -0.5771 -0.8695
15077SOL     OW46671   3.099   1.974   0.118  0.1771  0.6457 -0.1826
15077SOL    HW146672   3.137   2.051   0.076 -1.3981  1.3864 -0.3349
15077SOL    HW246673   3.027   1.948   0.060  0.3252 -0.6013  0.1581
15078SOL     OW46674   2.179   1.520  12.375  0.2663 -0.4804  0.2464
15078SOL    HW146675   2.193   1.569  12.457  0.8949 -0.0466 -0.1085
15078SOL    HW246676   2.238   1.561  12.312  0.7839 -1.6657 -0.0794
15079SOL     OW46677   2.586   4.914   3.866  0.4988 -0.4876  0.0827
15079SOL    HW146678   2.653   4.884   3.805  1.9388 -0.1155  1.4154
15079SOL    HW246679   2.534   4.836   3.886  0.7241 -0.8525 -0.7328
15080SOL     OW46680   5.215   6.597  10.731  0.9005 -0.3024  0.1739
15080SOL    HW146681   5.219   6.616  10.638 -1.2646  1.7552  0.4145
15080SOL    HW246682   5.301   6.625  10.765  0.8683  1.1627 -0.8664
15081SOL     OW46683   5.362   3.868   0.531  0.0790  0.5649 -0.0288
15081SOL    HW146684   5.289   3.901   0.583 -1.6471 -3.0132  0.1256
15081SOL    HW246685   5.404   3.802   0.586  2.3288  1.1975 -0.8437
15082SOL     OW46686   0.608   1.695  10.667 -0.3328  0.4012  0.0144
15082SOL    HW146687   0.691   1.670  10.706  0.3435 -2.0621 -2.6840
15082SOL    HW246688   0.629   1.771  10.612  0.1506 -0.1273 -0.5477
15083SOL     OW46689   0.697   1.179   2.157  0.2615  0.2295 -0.2179
15083SOL    HW146690   0.647   1.243   2.106  1.2255  0.7013 -0.6089
15083SOL    HW246691   0.761   1.144   2.094  1.2175  0.5416  0.5572
15084SOL     OW46692   2.802   7.050   7.056  0.3087  0.1286  0.3322
15084SOL    HW146693   2.854   7.101   6.994  0.6240  0.3927  0.8103
15084SOL    HW246694   2.712   7.062   7.027  0.2958  1.6366  0.8996
15085SOL     OW46695   3.522   3.750  10.334  0.7210 -0.3951 -0.6056
15085SOL    HW146696   3.606   3.704  10.324  0.6647 -0.3941 -1.0813
15085SOL    HW246697   3.489   3.720  10.419  2.9697  2.4465  1.4792
15086SOL     OW46698   2.178   7.080  11.372 -0.1187  0.5732  0.5010
15086SOL    HW146699   2.110   7.092  11.439  0.3875  0.7554  0.9846
15086SOL    HW246700   2.186   6.985  11.364  0.4057  0.5379  1.3065
15087SOL     OW46701   4.601   5.506   5.941 -0.6353  0.7665  0.3414
15087SOL    HW146702   4.662   5.576   5.918 -1.0465  0.5130 -1.7108
15087SOL    HW246703   4.642   5.426   5.908 -0.7438  0.1904  1.5573
15088SOL     OW46704   6.758   6.275   0.743  0.7073 -0.5284 -0.0153
15088SOL    HW146705   6.780   6.234   0.827 -0.2248 -0.9851  0.0174
15088SOL    HW246706   6.672   6.239   0.721  0.0332  1.1159 -0.1791
15089SOL     OW46707   3.470   6.223   4.675 -0.4481  0.4482  0.6908
15089SOL    HW146708   3.381   6.199   4.699 -0.9205  1.1288 -0.3075
15089SOL    HW246709   3.479   6.195   4.584  0.0998  1.0371  0.5572
15090SOL     OW46710   5.455   7.273   9.407  0.9877  0.4454  0.3798
15090SOL    HW146711   5.477   7.329   9.482  0.5650  1.8930 -0.5269
15090SOL    HW246712   5.500   7.315   9.333  1.0061 -0.6834 -0.2690
15091SOL     OW46713   2.352   1.117   3.348  0.3084  0.2473  0.7460
15091SOL    HW146714   2.331   1.203   3.384 -1.9134 -0.0973  0.4194
15091SOL    HW246715   2.335   1.126   3.254 -3.0823 -1.2760  1.0550
15092SOL     OW46716   2.631   7.237   4.932  0.0836 -0.5195  0.3290
15092SOL    HW146717   2.651   7.230   5.025 -0.3222 -3.4853  0.2903
15092SOL    HW246718   2.699   7.295   4.897  0.9124 -0.2518  2.2542
15093SOL     OW46719   1.414   3.437   9.684 -0.0283 -0.2569  0.1857
15093SOL    HW146720   1.449   3.349   9.680  0.4579 -0.0290 -0.9102
15093SOL    HW246721   1.483   3.489   9.725 -1.2145 -0.7705  3.0835
15094SOL     OW46722   4.104   7.908   1.078 -0.3949  0.3290 -0.1510
15094SOL    HW146723   4.048   7.937   1.007 -1.0264  1.0710  0.6354
15094SOL    HW246724   4.047   7.907   1.155  0.1241 -1.0366  0.2399
15095SOL     OW46725   2.659   0.468   6.229 -0.1377  0.2858 -0.0072
15095SOL    HW146726   2.599   0.515   6.287 -1.6732  1.3183 -2.2973
15095SOL    HW246727   2.607   0.394   6.196 -0.5436  1.5986 -2.5816
15096SOL     OW46728   5.347   6.487   3.885 -0.4165 -0.1543  0.2441
15096SOL    HW146729   5.423   6.491   3.827 -0.0389  1.4710  0.8001
15096SOL    HW246730   5.384   6.473   3.972 -0.8713 -0.9185  0.3246
15097SOL     OW46731   0.836   7.059   3.020 -0.3855  0.4273  0.1237
15097SOL    HW146732   0.855   7.149   2.995 -0.9742  0.9289  1.4040
15097SOL    HW246733   0.744   7.047   2.998 -0.0319 -0.2807 -1.1388
15098SOL     OW46734   1.033   1.894   8.558 -0.2412 -0.0336  0.9176
15098SOL    HW146735   1.053   1.823   8.618  0.2344  0.4082  1.2893
15098SOL    HW246736   0.959   1.939   8.600 -0.8357 -0.5657  0.4615
15099SOL     OW46737   5.794   0.166  10.245 -0.3453 -0.0352 -0.1860
15099SOL    HW146738   5.783   0.245  10.298  0.5607  0.3521 -0.5629
15099SOL    HW246739   5.813   0.199  10.157 -2.1219 -0.6687 -0.8523
15100SOL     OW46740   5.151   0.450   6.438 -1.2845  0.6031 -0.0856
15100SOL    HW146741   5.174   0.484   6.351 -1.0302 -0.2556 -0.3574
15100SOL    HW246742   5.133   0.529   6.489  4.5589  1.7310  0.9446
15101SOL     OW46743   2.220   4.676   1.481 -0.1816  0.4756 -0.1708
15101SOL    HW146744   2.213   4.640   1.392 -1.0657 -0.6910  0.3344
15101SOL    HW246745   2.229   4.599   1.537  1.1462  1.2281  0.7143
15102SOL     OW46746   4.635   3.764   0.724 -0.1168 -0.5188  0.5384
15102SOL    HW146747   4.581   3.701   0.772 -0.1334 -2.0423 -1.3671
15102SOL    HW246748   4.583   3.786   0.647  0.0003  1.6920  1.0399
15103SOL     OW46749   7.284   5.840   4.631 -0.0286 -0.2453  0.0499
15103SOL    HW146750   7.379   5.838   4.629 -0.0438 -0.4326 -0.9408
15103SOL    HW246751   7.257   5.826   4.540 -1.0313 -1.3974  0.4919
15104SOL     OW46752   0.644   4.626   1.016 -0.3652 -0.2807 -0.3835
15104SOL    HW146753   0.647   4.651   0.924  1.3699 -1.2145 -0.6139
15104SOL    HW246754   0.714   4.561   1.026 -0.4470 -0.1236  1.6039
15105SOL     OW46755   7.503   2.948   4.000  0.2688 -0.0770  0.3542
15105SOL    HW146756   7.518   2.927   3.907 -1.1757  1.4753 -0.2818
15105SOL    HW246757   7.417   2.910   4.019 -0.1573  0.9685  0.5789
15106SOL     OW46758   0.091   4.089   9.062  0.3582  0.1940 -0.1058
15106SOL    HW146759   0.166   4.039   9.094  0.4310  0.2033 -0.2604
15106SOL    HW246760   0.063   4.042   8.984 -0.5970 -0.5506  0.6565
15107SOL     OW46761   6.859   1.036   9.248 -0.1391  0.1237 -0.2517
15107SOL    HW146762   6.871   0.951   9.292  0.6151 -0.8120 -2.1367
15107SOL    HW246763   6.796   1.082   9.303  1.0026 -0.8045  1.9699
15108SOL     OW46764   6.641   6.679   7.134  0.2604  0.9882  0.2101
15108SOL    HW146765   6.571   6.713   7.190  0.1545  0.9874  0.0774
15108SOL    HW246766   6.682   6.610   7.187 -0.6228  0.1432 -0.1679
15109SOL     OW46767   3.178   6.688  11.761 -0.0279 -0.3320  0.0109
15109SOL    HW146768   3.124   6.630  11.815  1.5066 -0.3106  1.6556
15109SOL    HW246769   3.158   6.776  11.793 -0.1948 -0.1881 -0.4819
15110SOL     OW46770   4.679   6.782  10.386 -0.2723 -0.0287  0.1390
15110SOL    HW146771   4.638   6.813  10.467  1.4185 -0.9902  1.4359
15110SOL    HW246772   4.617   6.720  10.349 -0.6960 -0.2373  1.1712
15111SOL     OW46773   7.634   3.991   7.010 -0.8680  0.1471 -0.2347
15111SOL    HW146774   7.567   4.054   7.036  0.2030  1.9344 -1.5591
15111SOL    HW246775   7.588   3.930   6.952 -0.9157  3.2815 -3.9294
15112SOL     OW46776   6.027   2.860  11.467  0.4745 -0.0763  0.0774
15112SOL    HW146777   6.066   2.778  11.435 -0.2448 -0.5061  0.2674
15112SOL    HW246778   6.066   2.928  11.412  0.9154 -0.5732 -0.2388
15113SOL     OW46779   5.956   0.310   4.531 -0.3736  0.1370 -0.1611
15113SOL    HW146780   5.976   0.217   4.541 -1.0481  0.0238  0.1909
15113SOL    HW246781   6.041   0.351   4.515 -0.0681 -0.5330 -0.2937
15114SOL     OW46782   0.951   3.663   6.731  0.1263  0.7573 -0.3540
15114SOL    HW146783   1.024   3.620   6.687  1.6606 -0.2722  2.8558
15114SOL    HW246784   0.989   3.697   6.812 -3.0311 -0.5879  1.9224
15115SOL     OW46785   4.590   7.723   2.175 -0.9768  0.3027  0.3115
15115SOL    HW146786   4.530   7.794   2.197 -1.0548 -0.1943  1.7909
15115SOL    HW246787   4.533   7.653   2.142 -1.0448  0.4328  0.1550
15116SOL     OW46788   4.981   3.161  10.078 -0.1136 -0.0500  0.6289
15116SOL    HW146789   4.977   3.119   9.993  1.0095  1.0456 -0.0112
15116SOL    HW246790   4.892   3.155  10.113 -0.4467 -1.0478 -0.3501
15117SOL     OW46791   6.873   7.877  10.377 -0.5113 -0.1355 -0.0190
15117SOL    HW146792   6.863   7.912  10.289  0.6893  0.1836 -0.0380
15117SOL    HW246793   6.783   7.857  10.405 -0.8346 -1.3682 -1.7606
15118SOL     OW46794   7.519   1.450   2.247  0.0359 -0.1400  0.0683
15118SOL    HW146795   7.598   1.499   2.224  0.1462 -0.6474 -0.6611
15118SOL    HW246796   7.544   1.358   2.238 -0.9224 -0.2985 -1.2000
15119SOL     OW46797   4.105   1.570   8.243 -0.1588 -0.1916  0.0315
15119SOL    HW146798   4.187   1.618   8.228  0.2445 -1.1749 -1.0020
15119SOL    HW246799   4.097   1.566   8.339  0.8089  0.2357  0.1438
15120SOL     OW46800   0.944   1.997   4.809 -0.1160  0.0790  0.0950
15120SOL    HW146801   0.898   1.935   4.752  0.2098  1.0630 -1.2835
15120SOL    HW246802   0.908   1.980   4.897 -0.9783 -1.1465 -0.4691
15121SOL     OW46803   3.973   7.700  11.464 -0.5231  0.2356 -0.4572
15121SOL    HW146804   4.020   7.617  11.462  1.4422  1.1511  2.0240
15121SOL    HW246805   4.041   7.767  11.454 -1.8900  1.5779 -1.1336
15122SOL     OW46806   3.918   0.340   6.696 -0.3305  0.3538  0.1469
15122SOL    HW146807   4.009   0.317   6.713 -0.1521  1.4262  0.7575
15122SOL    HW246808   3.869   0.297   6.767 -0.2265  0.2825  0.1755
15123SOL     OW46809   3.890   4.578   9.526  0.0472 -0.1192  0.0452
15123SOL    HW146810   3.823   4.556   9.462 -1.1872  1.8143  0.5763
15123SOL    HW246811   3.957   4.624   9.475 -0.8691  1.2954  0.0546
15124SOL     OW46812   1.073   7.810  11.265  0.3861  0.2066  0.1434
15124SOL    HW146813   1.003   7.787  11.327 -0.2866  0.4991 -0.4959
15124SOL    HW246814   1.151   7.770  11.303  0.0422  0.5882  1.3191
15125SOL     OW46815   0.321   2.562   6.415  0.1191 -0.3826 -0.4796
15125SOL    HW146816   0.341   2.541   6.323  0.9157 -1.7708 -0.0278
15125SOL    HW246817   0.360   2.490   6.464  0.2417  0.6616  1.0075
15126SOL     OW46818   6.899   2.737   9.204  0.4195 -0.2603 -0.4782
15126SOL    HW146819   6.930   2.718   9.293  1.1359 -1.4461 -0.9489
15126SOL    HW246820   6.932   2.663   9.152 -2.5361 -1.1987 -1.1835
15127SOL     OW46821   7.179   2.616   5.064 -0.1952 -0.0462 -0.7126
15127SOL    HW146822   7.226   2.697   5.047  0.2424 -0.4300 -1.3881
15127SOL    HW246823   7.128   2.633   5.143  1.7204  0.1192  0.5567
15128SOL     OW46824   2.754   1.224   9.199 -0.0749 -0.2041 -0.0573
15128SOL    HW146825   2.740   1.302   9.253  2.4026 -0.0418  0.4777
15128SOL    HW246826   2.730   1.151   9.255 -0.9766  0.0873 -0.0424
15129SOL     OW46827   4.140   6.366   3.894  0.1821 -0.0573  0.3408
15129SOL    HW146828   4.209   6.429   3.877  1.2186 -1.4851 -0.9046
15129SOL    HW246829   4.185   6.283   3.909 -1.2451 -1.0203 -0.4586
15130SOL     OW46830   5.921   4.869   3.286  0.1318 -0.7136 -0.1539
15130SOL    HW146831   5.825   4.866   3.283  0.1654 -1.8929 -0.2513
15130SOL    HW246832   5.949   4.783   3.255  1.2759  0.1694 -1.7009
15131SOL     OW46833   4.972   2.582   8.327  0.0130  0.5779 -0.2476
15131SOL    HW146834   5.054   2.629   8.343 -0.0226  0.6967 -0.4098
15131SOL    HW246835   4.930   2.630   8.255  0.0319  0.2327 -0.4937
15132SOL     OW46836   4.613   4.908   0.216 -0.2418 -0.5423  0.1186
15132SOL    HW146837   4.647   4.991   0.251  0.3678 -0.0076 -1.6402
15132SOL    HW246838   4.644   4.842   0.278  1.1721  0.3165  0.3764
15133SOL     OW46839   4.808   7.464   9.842 -0.1188  0.2647 -0.2981
15133SOL    HW146840   4.774   7.530   9.782  0.1377  0.1726 -0.5491
15133SOL    HW246841   4.829   7.512   9.922 -3.6811 -0.1273  1.0303
15134SOL     OW46842   5.525   6.920   0.282  0.0603  0.3069  0.3167
15134SOL    HW146843   5.579   6.998   0.273  2.1863 -1.1603 -0.5297
15134SOL    HW246844   5.477   6.915   0.199 -0.0304  0.6635  0.3448
15135SOL     OW46845   0.193   4.210   7.966 -0.1902 -0.1087  0.3353
15135SOL    HW146846   0.101   4.233   7.979  0.4137  2.7995  0.1209
15135SOL    HW246847   0.214   4.238   7.878  1.2939  0.8190  0.9385
15136SOL     OW46848   7.194   5.840   4.379  0.0807  0.2889 -0.3023
15136SOL    HW146849   7.104   5.869   4.365 -0.1469 -0.7168 -1.0168
15136SOL    HW246850   7.246   5.920   4.368 -0.7430  0.9805  0.6160
15137SOL     OW46851   4.179   0.651   6.306  0.4120  0.6284 -0.2238
15137SOL    HW146852   4.168   0.681   6.216  1.1138 -1.2283 -0.9712
15137SOL    HW246853   4.266   0.611   6.308 -0.0490 -0.4006  0.9475
15138SOL     OW46854   7.767   0.002   9.903  0.1577  0.0590 -0.0396
15138SOL    HW146855   7.798  -0.008   9.993  1.1486 -2.0647 -0.5551
15138SOL    HW246856   7.836   0.053   9.860  0.5754 -0.4689 -0.0100
15139SOL     OW46857   5.478   0.420   5.020  0.3635 -0.1221 -0.0912
15139SOL    HW146858   5.549   0.474   4.985 -0.1449 -0.1823 -1.2647
15139SOL    HW246859   5.407   0.429   4.956 -0.1711 -1.2007  0.3260
15140SOL     OW46860   2.804   2.218   9.778  0.3381  0.5384 -0.1911
15140SOL    HW146861   2.850   2.139   9.752  0.3268  0.8650 -1.2668
15140SOL    HW246862   2.720   2.213   9.732 -0.0270  0.7494  0.4360
15141SOL     OW46863   7.470   2.658   7.236  0.5490  0.1542 -0.2345
15141SOL    HW146864   7.457   2.646   7.142  0.3256 -1.0574 -0.0759
15141SOL    HW246865   7.500   2.572   7.267  0.6626  0.5450  0.7929
15142SOL     OW46866   7.335   2.147   6.101 -0.1086  0.7646  0.0772
15142SOL    HW146867   7.320   2.152   6.007  1.2157  2.2781 -0.1067
15142SOL    HW246868   7.385   2.067   6.113  1.2438  1.4382 -0.7860
15143SOL     OW46869   2.318   5.397   6.505 -0.0498 -0.5715  0.0152
15143SOL    HW146870   2.352   5.312   6.474 -0.7120 -0.8181 -0.0517
15143SOL    HW246871   2.288   5.441   6.426 -0.2086 -0.4998  0.1165
15144SOL     OW46872   7.274   5.968   5.302  0.6332 -0.3576  0.5305
15144SOL    HW146873   7.217   5.929   5.368  1.9530 -0.2246  1.7862
15144SOL    HW246874   7.253   6.061   5.304 -0.2350 -0.5208 -0.1827
15145SOL     OW46875   7.253   3.472   8.173 -0.2285 -0.0095 -0.3707
15145SOL    HW146876   7.196   3.487   8.097 -0.0767 -0.2177 -0.5300
15145SOL    HW246877   7.320   3.412   8.140  2.4434  3.2843 -1.3566
15146SOL     OW46878   5.276   7.062   0.841 -0.4110  0.1505  0.8010
15146SOL    HW146879   5.334   7.122   0.888 -0.4996 -0.6412  1.9514
15146SOL    HW246880   5.321   6.978   0.846 -1.7837 -0.5432  1.9913
15147SOL     OW46881   5.136   3.962   3.762 -0.0881  0.6972  0.3574
15147SOL    HW146882   5.167   4.032   3.820  3.1313 -1.5664  1.5931
15147SOL    HW246883   5.072   3.914   3.814  2.0686 -0.7324  1.8415
15148SOL     OW46884   2.282   3.358  12.375  0.0076  0.2116 -0.1995
15148SOL    HW146885   2.261   3.386  12.286  0.0693  1.9142  0.2889
15148SOL    HW246886   2.370   3.393  12.390  0.5728 -1.2471  0.0733
15149SOL     OW46887   3.291   5.918   3.400 -0.3662  0.1464 -0.0662
15149SOL    HW146888   3.328   5.921   3.488 -0.4824 -0.5573  0.0100
15149SOL    HW246889   3.201   5.887   3.413 -1.5229  3.1675 -0.0894
15150SOL     OW46890   2.206   0.197   9.744 -0.6825  0.2412  0.1514
15150SOL    HW146891   2.298   0.171   9.743 -0.9365 -0.7358  0.8996
15150SOL    HW246892   2.158   0.114   9.746 -1.5509  0.7541  1.1411
15151SOL     OW46893   4.996   5.498  10.396 -0.4592 -0.1666  0.4139
15151SOL    HW146894   5.048   5.471  10.320 -1.2064  1.1195 -0.6063
15151SOL    HW246895   5.021   5.590  10.410 -0.3267 -0.3862  1.7527
15152SOL     OW46896   7.339   3.139   2.947  0.2879  0.1336  0.1323
15152SOL    HW146897   7.407   3.073   2.952  0.8519  0.6818 -0.1454
15152SOL    HW246898   7.328   3.169   3.038 -0.1315 -0.4904  0.2933
15153SOL     OW46899   3.629   3.494   1.968  0.0914  0.4399  0.3739
15153SOL    HW146900   3.612   3.399   1.971 -1.1748  0.6501  0.9419
15153SOL    HW246901   3.724   3.502   1.959  0.3383 -0.8908  1.4373
15154SOL     OW46902   4.585   7.265   3.415 -0.0656  0.2992  0.2982
15154SOL    HW146903   4.589   7.357   3.444  2.2085  0.6688 -0.9078
15154SOL    HW246904   4.536   7.268   3.333  0.8094  0.6083 -0.2242
15155SOL     OW46905   2.351   7.061   7.362  0.1276  0.2285 -0.3067
15155SOL    HW146906   2.445   7.047   7.350 -0.1520 -0.7248 -1.5197
15155SOL    HW246907   2.326   7.122   7.293 -0.4881 -1.0190 -1.2067
15156SOL     OW46908   3.363   5.485  10.115  0.3847  0.2356 -0.4138
15156SOL    HW146909   3.324   5.572  10.106  1.7224  0.6974 -2.5320
15156SOL    HW246910   3.457   5.502  10.117  0.6127 -1.0263  1.7225
15157SOL     OW46911   7.504   3.965   0.323  0.1528 -0.1409  0.2881
15157SOL    HW146912   7.474   3.897   0.262 -0.3237  0.4809 -0.1838
15157SOL    HW246913   7.560   3.918   0.385 -0.4313 -1.0243  0.1692
15158SOL     OW46914   5.459   7.194   2.606  0.0434  0.3130  0.6721
15158SOL    HW146915   5.527   7.260   2.612  0.0650  0.2417  1.2891
15158SOL    HW246916   5.380   7.243   2.581  0.0820  0.5595  1.0244
15159SOL     OW46917   0.529   4.923   9.738  0.0069 -0.2361  0.2524
15159SOL    HW146918   0.573   4.867   9.675 -1.0859 -0.8969  0.0489
15159SOL    HW246919   0.457   4.963   9.690  0.7927  1.4416  0.3717
15160SOL     OW46920   1.901   6.485  10.831 -0.1769 -0.6910  0.2796
15160SOL    HW146921   1.860   6.510  10.748  0.8946 -2.3645 -0.8104
15160SOL    HW246922   1.859   6.541  10.896 -1.5561  0.1814 -1.2824
15161SOL     OW46923   3.182   0.346   9.907  0.1334  0.3558  0.1512
15161SOL    HW146924   3.132   0.304   9.837 -0.3346  0.5457  0.3681
15161SOL    HW246925   3.271   0.352   9.872  0.2857 -1.0666  0.2145
15162SOL     OW46926   4.413   2.264   3.270  0.0310  0.4247  0.3364
15162SOL    HW146927   4.352   2.190   3.273  0.9710 -0.3309  1.5801
15162SOL    HW246928   4.390   2.310   3.189 -0.3060 -1.4457 -0.6869
15163SOL     OW46929   0.777   2.696   9.997  0.6383  0.1371  0.2676
15163SOL    HW146930   0.760   2.698  10.091 -2.7194  0.5676 -0.2182
15163SOL    HW246931   0.814   2.609   9.981  2.0170  0.3496  2.0319
15164SOL     OW46932   0.325   4.542   5.523 -0.2806  0.1353 -0.1425
15164SOL    HW146933   0.309   4.625   5.567  0.8278  0.0202  0.5138
15164SOL    HW246934   0.253   4.533   5.461 -0.1059  1.8529 -0.6190
15165SOL     OW46935   2.675   5.540   1.669  0.3122 -0.2841 -0.8044
15165SOL    HW146936   2.751   5.490   1.638  1.0326 -1.1536  2.0683
15165SOL    HW246937   2.674   5.526   1.763 -2.9919  0.3576 -0.6160
15166SOL     OW46938   1.900   1.068   5.393 -0.5597  0.7235  0.3178
15166SOL    HW146939   1.820   1.017   5.403 -0.1310 -0.2191 -0.7569
15166SOL    HW246940   1.948   1.055   5.475 -2.1313  2.5218  1.6023
15167SOL     OW46941   4.530   3.550   4.630 -0.3728 -0.5973  0.1020
15167SOL    HW146942   4.501   3.631   4.587 -0.1845 -0.7230 -0.2667
15167SOL    HW246943   4.594   3.513   4.570  1.8291  0.5248  1.6441
15168SOL     OW46944   1.541   2.016   2.234  0.0190 -0.0695 -0.0395
15168SOL    HW146945   1.625   1.980   2.205 -0.7493 -1.7524 -0.3232
15168SOL    HW246946   1.496   2.040   2.153 -0.3683 -0.6025  0.0145
15169SOL     OW46947   1.817   2.741   6.687 -0.3892 -0.1743  0.2530
15169SOL    HW146948   1.730   2.733   6.727  0.4972 -1.3066  2.0504
15169SOL    HW246949   1.873   2.683   6.738  1.5773  0.9696 -0.4840
15170SOL     OW46950   2.483   2.834   4.048 -0.4541 -0.0523 -0.2092
15170SOL    HW146951   2.439   2.751   4.028 -1.0076 -0.0407  0.8662
15170SOL    HW246952   2.471   2.888   3.970 -2.5078 -0.0010  0.0825
15171SOL     OW46953   3.189   3.811   7.718  0.8299 -0.3985  0.3152
15171SOL    HW146954   3.266   3.857   7.752  1.3227  0.6438 -2.0258
15171SOL    HW246955   3.206   3.803   7.624 -0.8183 -2.3929  0.1407
15172SOL     OW46956   0.054   5.732   3.661 -0.4244 -0.3253 -0.5635
15172SOL    HW146957   0.080   5.646   3.629 -0.3740 -0.2482 -0.7320
15172SOL    HW246958  -0.036   5.720   3.691 -0.0609 -0.6998  0.4272
15173SOL     OW46959   0.682   3.508  10.553 -0.1652  0.2819  0.0631
15173SOL    HW146960   0.713   3.451  10.482  1.3838  0.8390  0.2636
15173SOL    HW246961   0.605   3.552  10.516  0.0370 -0.1662 -0.9311
15174SOL     OW46962   7.846   4.857   3.151 -0.5032 -0.1758  0.8231
15174SOL    HW146963   7.781   4.801   3.109 -1.1788 -0.5592  2.2818
15174SOL    HW246964   7.819   4.858   3.243  0.7713  0.7884  1.2055
15175SOL     OW46965   5.756   3.633   4.583 -0.2595  0.0021  0.3525
15175SOL    HW146966   5.684   3.606   4.527 -0.2021 -0.2477  0.3984
15175SOL    HW246967   5.720   3.704   4.636  0.0854  1.2340 -0.9852
15176SOL     OW46968   0.467   1.342   9.223  0.2348 -0.2901  0.0651
15176SOL    HW146969   0.434   1.259   9.191 -0.6482  0.5797 -1.3634
15176SOL    HW246970   0.400   1.406   9.199  1.6654  1.0896 -0.4237
15177SOL     OW46971   7.139   1.823   1.727  0.0480 -0.0439 -0.7811
15177SOL    HW146972   7.207   1.889   1.711 -0.3121  0.0951 -1.8338
15177SOL    HW246973   7.158   1.754   1.663 -0.4065 -0.3102 -0.6341
15178SOL     OW46974   4.665   1.962   5.138  0.3543 -0.0176 -0.0417
15178SOL    HW146975   4.692   1.882   5.184 -1.1800 -0.1309  0.7591
15178SOL    HW246976   4.722   1.967   5.061  1.3296 -1.1815  0.5758
15179SOL     OW46977   5.309   1.953   8.498  0.1085 -0.9179  0.3018
15179SOL    HW146978   5.265   1.995   8.572  0.7569 -1.6270  1.0952
15179SOL    HW246979   5.392   1.921   8.533  1.7955  1.2495 -1.3772
15180SOL     OW46980   6.435   4.581   1.811  0.2209  0.1913 -0.3335
15180SOL    HW146981   6.393   4.512   1.862 -0.5943 -0.5147 -1.8721
15180SOL    HW246982   6.379   4.590   1.733  0.5881  2.2376 -0.4199
15181SOL     OW46983   1.995   5.694   0.857 -0.1478 -0.2224 -0.4208
15181SOL    HW146984   1.977   5.602   0.837 -0.7195 -0.3531  0.6004
15181SOL    HW246985   1.930   5.742   0.806  0.0344 -0.3892 -0.8162
15182SOL     OW46986   2.823   4.765  11.588 -0.6488  0.5879  0.1674
15182SOL    HW146987   2.855   4.849  11.620  1.3264  0.6531 -1.7924
15182SOL    HW246988   2.868   4.700  11.643 -1.3346  0.7476  0.9465
15183SOL     OW46989   3.131   4.327   3.957  0.4705 -0.2455 -0.0952
15183SOL    HW146990   3.173   4.364   4.035  0.5768  0.4568 -0.4813
15183SOL    HW246991   3.050   4.376   3.947 -0.2873 -1.3282  0.4114
15184SOL     OW46992   0.307   7.720   1.418 -0.3962  0.0988 -0.1150
15184SOL    HW146993   0.281   7.812   1.406  0.8517  0.8652  2.3648
15184SOL    HW246994   0.225   7.675   1.438 -0.9776  0.7356 -0.9828
15185SOL     OW46995   7.172   1.101   0.908 -0.1426  0.3451  0.1768
15185SOL    HW146996   7.190   1.007   0.904 -3.9940 -0.5148 -2.7631
15185SOL    HW246997   7.249   1.138   0.952  2.0720 -3.9839  0.4998
15186SOL     OW46998   1.582   6.048   7.278  0.5061 -0.0088 -0.2622
15186SOL    HW146999   1.671   6.016   7.262  0.9392  1.5929 -1.3537
15186SOL    HW247000   1.526   5.988   7.229  0.9739 -0.9966  0.3869
15187SOL     OW47001   7.952   5.890  11.704 -0.3559  0.4607 -0.3539
15187SOL    HW147002   8.013   5.833  11.751 -1.5123  0.1248  0.7689
15187SOL    HW247003   7.926   5.956  11.768 -1.7960  0.1190 -0.5465
15188SOL     OW47004   5.934   0.229   0.780 -0.1492  0.1168  0.1119
15188SOL    HW147005   5.947   0.176   0.701  1.4963 -0.3039  0.6324
15188SOL    HW247006   5.865   0.184   0.828 -1.8773  0.9096 -1.5119
15189SOL     OW47007   0.370   6.656   3.305  0.7269  0.2109  0.0873
15189SOL    HW147008   0.380   6.613   3.220  0.0081  0.4610 -0.1325
15189SOL    HW247009   0.275   6.655   3.321  0.7541  1.1648  0.3596
15190SOL     OW47010   1.608   7.697   1.974  0.1720 -0.0688  0.0428
15190SOL    HW147011   1.550   7.643   1.920 -2.1978  1.5592  0.7543
15190SOL    HW247012   1.696   7.665   1.956 -0.6841 -0.9636 -3.1414
15191SOL     OW47013   7.491   2.144   9.914  0.1664 -0.0215  0.2160
15191SOL    HW147014   7.500   2.078   9.983 -1.0893  0.5325  0.9550
15191SOL    HW247015   7.516   2.099   9.834  1.0555 -0.8704  0.9491
15192SOL     OW47016   6.894   3.569   1.591 -0.8605 -0.5854 -0.0770
15192SOL    HW147017   6.820   3.630   1.592  1.0456  1.9552 -1.7419
15192SOL    HW247018   6.971   3.624   1.576  0.8060 -3.4730 -4.2903
15193SOL     OW47019   1.955   5.990  11.705 -0.3921  0.0230  0.0908
15193SOL    HW147020   2.015   5.981  11.632 -0.1840  0.6847  0.1709
15193SOL    HW247021   1.900   6.066  11.682 -2.6138 -1.7864 -0.9693
15194SOL     OW47022   7.656   3.329  10.995 -0.1246 -0.1050  0.0130
15194SOL    HW147023   7.673   3.371  10.910 -2.7148 -0.1032 -0.5828
15194SOL    HW247024   7.646   3.236  10.974 -0.7234 -0.1106  0.3237
15195SOL     OW47025   2.830   7.836   8.862 -0.4135  0.2670  0.9057
15195SOL    HW147026   2.858   7.747   8.883  0.2232  0.2993  0.2037
15195SOL    HW247027   2.804   7.832   8.770  0.5699  1.0269  0.5789
15196SOL     OW47028   4.191   0.660   2.193  0.1394 -0.6987 -0.1814
15196SOL    HW147029   4.163   0.739   2.240 -0.1255 -2.1788  2.2886
15196SOL    HW247030   4.279   0.642   2.225 -1.0121 -3.1943  1.9019
15197SOL     OW47031   4.146   2.316   6.874  0.8713  0.1661  0.6569
15197SOL    HW147032   4.138   2.221   6.884 -0.4086  0.3979  2.1232
15197SOL    HW247033   4.124   2.332   6.782  1.0780 -0.9353  0.3992
15198SOL     OW47034   0.864   6.279   3.442  0.1173 -0.0534 -0.1491
15198SOL    HW147035   0.905   6.335   3.376 -0.3798  2.2007  1.3489
15198SOL    HW247036   0.937   6.238   3.487  0.4875 -0.8271 -1.3868
15199SOL     OW47037   1.911   2.512   6.255  0.0075  0.4820 -0.1964
15199SOL    HW147038   1.953   2.590   6.219  2.8677 -0.1737  1.4185
15199SOL    HW247039   1.921   2.445   6.187  2.1694  0.1966  0.3595
15200SOL     OW47040   1.791   7.357   1.046  0.3055 -0.4737  0.1816
15200SOL    HW147041   1.779   7.355   1.141  1.1213 -1.4998  0.2739
15200SOL    HW247042   1.823   7.270   1.023  0.0721 -0.2584 -1.0491
15201SOL     OW47043   7.699   2.376   3.673  0.2680 -0.1952  0.2817
15201SOL    HW147044   7.707   2.469   3.695  1.8796 -0.0225 -0.7996
15201SOL    HW247045   7.605   2.359   3.672 -0.0394  1.3236  0.8972
15202SOL     OW47046   3.956   3.141  10.329  0.6679 -0.4429  0.0252
15202SOL    HW147047   3.988   3.205  10.266  1.2954 -1.2597 -0.5100
15202SOL    HW247048   4.010   3.154  10.407  0.9862 -0.5145 -0.1846
15203SOL     OW47049   3.244   4.632  11.825 -0.4276 -0.7528 -0.4242
15203SOL    HW147050   3.223   4.556  11.880  2.0306 -0.1438  1.5610
15203SOL    HW247051   3.310   4.599  11.764 -0.3975 -0.5578 -0.4959
15204SOL     OW47052   2.932   7.636   5.345 -0.3086 -0.1916 -0.7907
15204SOL    HW147053   2.854   7.595   5.307  0.5017 -2.0843 -0.5214
15204SOL    HW247054   2.936   7.603   5.435  1.7220 -1.6011 -1.3145
15205SOL     OW47055   5.219   5.139   7.953 -0.1663 -0.6540  0.0138
15205SOL    HW147056   5.147   5.119   7.894 -0.2663 -2.1900  0.6029
15205SOL    HW247057   5.272   5.204   7.907  0.2798 -2.4577 -2.1992
15206SOL     OW47058   4.838   7.104   7.207  0.3257 -0.1996 -0.3414
15206SOL    HW147059   4.869   7.142   7.289 -1.3220  0.6989 -0.0888
15206SOL    HW247060   4.904   7.130   7.142  0.7361  0.6110  0.3766
15207SOL     OW47061   4.240   3.121   2.079  0.2043 -0.4779 -0.1712
15207SOL    HW147062   4.189   3.184   2.129  1.4452  0.9208 -0.5942
15207SOL    HW247063   4.235   3.040   2.130 -1.5081 -0.0852  0.3308
15208SOL     OW47064   0.088   7.299   9.002 -0.0641  0.0204 -0.5033
15208SOL    HW147065   0.118   7.330   9.087 -1.3638  0.2358 -0.1035
15208SOL    HW247066  -0.004   7.275   9.016 -0.3451  0.2181 -1.8783
15209SOL     OW47067   2.254   5.023  10.152 -0.7515 -0.0319 -0.0131
15209SOL    HW147068   2.223   5.081  10.082  1.3041  0.5617 -0.4980
15209SOL    HW247069   2.312   4.961  10.107 -1.1797 -1.0797  0.8467
15210SOL     OW47070   5.950   4.951   1.628  0.2156 -0.1378  0.2799
15210SOL    HW147071   6.021   4.977   1.570  2.0683 -0.1596  2.4184
15210SOL    HW247072   5.950   4.855   1.624  0.2744 -0.1361  0.2352
15211SOL     OW47073   5.273   2.491   4.019 -0.0688  0.3503 -0.3141
15211SOL    HW147074   5.203   2.459   4.076  0.6799 -0.3373  0.2516
15211SOL    HW247075   5.349   2.497   4.076  0.6325 -0.0771 -1.1796
15212SOL     OW47076   3.691   5.125   7.862  0.5479  0.0120  0.0539
15212SOL    HW147077   3.604   5.152   7.832  0.4310 -0.3933  0.0235
15212SOL    HW247078   3.677   5.091   7.950  0.5307 -0.8534 -0.2752
15213SOL     OW47079   6.233   0.377   5.740 -0.9129  0.0626  0.0089
15213SOL    HW147080   6.248   0.322   5.817  2.6732  0.2189 -0.4186
15213SOL    HW247081   6.200   0.460   5.776 -1.5757 -0.6621  1.1120
15214SOL     OW47082   1.356   3.555  11.636 -0.1935 -0.8858  0.3697
15214SOL    HW147083   1.439   3.544  11.590 -0.8547 -1.0453 -0.8173
15214SOL    HW247084   1.345   3.474  11.686 -0.1946 -1.3481 -0.3761
15215SOL     OW47085   5.092   0.975   8.798 -0.4106  0.1751  0.0331
15215SOL    HW147086   5.183   0.969   8.770 -0.0683  0.5266  1.0179
15215SOL    HW247087   5.080   1.068   8.820 -0.7139 -0.0403  0.8121
15216SOL     OW47088   5.536   6.979   2.414 -0.7106  0.1175  0.4579
15216SOL    HW147089   5.598   7.035   2.368  1.3765 -0.9592  1.8291
15216SOL    HW247090   5.497   7.037   2.480 -2.0178  1.0582 -1.0414
15217SOL     OW47091   2.551   0.370  12.100 -0.1196  0.3920  0.1074
15217SOL    HW147092   2.580   0.447  12.051  0.4447  0.2497  0.2190
15217SOL    HW247093   2.630   0.336  12.141 -0.3155 -0.4059 -0.1607
15218SOL     OW47094   6.729   3.415   7.489  0.0860  0.3854  0.0734
15218SOL    HW147095   6.745   3.336   7.540  1.2177  0.7177  0.2695
15218SOL    HW247096   6.654   3.456   7.531 -0.9751 -0.9291 -0.4702
15219SOL     OW47097   7.687   5.155   6.874 -0.4536 -0.1751  0.0528
15219SOL    HW147098   7.765   5.118   6.915 -0.0886  1.6378  1.1048
15219SOL    HW247099   7.633   5.079   6.850  1.0263 -1.4036  0.4915
15220SOL     OW47100   4.847   7.009   7.701  0.8277 -0.0380  0.1601
15220SOL    HW147101   4.918   6.962   7.747 -1.0403 -1.6317  1.6262
15220SOL    HW247102   4.792   6.939   7.666 -1.2084  1.0563  1.0242
15221SOL     OW47103   2.099   6.376   5.527  0.0424 -0.3076 -0.7115
15221SOL    HW147104   2.049   6.422   5.595  0.5676 -0.5303 -0.1581
15221SOL    HW247105   2.085   6.283   5.546  0.8556 -0.3782 -0.3883
15222SOL     OW47106   6.183   1.393   2.633 -0.1184 -0.5891 -0.5312
15222SOL    HW147107   6.269   1.359   2.611  0.8832  1.2094  0.3480
15222SOL    HW247108   6.144   1.415   2.548  0.9772  0.1022 -0.8823
15223SOL     OW47109   7.250   3.128   8.356  0.2637  0.2258 -0.1922
15223SOL    HW147110   7.179   3.177   8.315  0.3628 -0.8818 -1.7797
15223SOL    HW247111   7.280   3.068   8.288  0.3239 -1.8517  1.5713
15224SOL     OW47112   2.350   4.190   0.460  0.1367  0.0323  0.0226
15224SOL    HW147113   2.438   4.199   0.422  0.3335 -1.5510  0.0409
15224SOL    HW247114   2.337   4.271   0.509  1.9550 -0.0855  0.7727
15225SOL     OW47115   0.780   7.128   4.805  0.8301 -0.0562  0.0603
15225SOL    HW147116   0.761   7.133   4.711  2.5956 -0.1365 -0.3422
15225SOL    HW247117   0.826   7.045   4.816  0.5378 -0.0957  1.0152
15226SOL     OW47118   0.936   7.656   0.649 -0.1388  0.3470  0.2024
15226SOL    HW147119   1.004   7.707   0.693  1.2446 -1.1054 -0.1622
15226SOL    HW247120   0.936   7.572   0.694  0.0856 -0.5464 -1.3859
15227SOL     OW47121   2.893   0.231  10.976  0.2888 -0.0499 -0.1750
15227SOL    HW147122   2.927   0.150  10.940 -1.4408 -0.3342 -1.2301
15227SOL    HW247123   2.918   0.298  10.912 -0.8865 -0.2283 -0.8463
15228SOL     OW47124   0.410   7.229   1.529 -0.0684  0.0229 -0.2293
15228SOL    HW147125   0.468   7.257   1.599 -0.5557  2.2499 -0.6482
15228SOL    HW247126   0.322   7.241   1.564 -0.3086  0.6750 -1.0321
15229SOL     OW47127   1.496   0.207  11.304 -0.6764 -0.0310 -0.1671
15229SOL    HW147128   1.561   0.189  11.373  0.8754  2.5604 -0.8278
15229SOL    HW247129   1.541   0.187  11.222 -1.9798 -1.5903 -0.5478
15230SOL     OW47130   2.775   5.693   3.127 -0.1682  0.4119 -0.3183
15230SOL    HW147131   2.799   5.630   3.196 -0.0376 -0.6351 -1.2891
15230SOL    HW247132   2.847   5.755   3.125 -0.1216  0.3918  0.4182
15231SOL     OW47133   5.103   7.113   6.199  0.5662 -0.8887  0.1480
15231SOL    HW147134   5.014   7.081   6.212  0.4404 -2.2911 -3.1691
15231SOL    HW247135   5.158   7.041   6.231  0.3701 -1.9122 -1.6931
15232SOL     OW47136   1.867   7.451   9.080  0.1203  0.4327 -0.3009
15232SOL    HW147137   1.816   7.495   9.148 -1.3667  0.4477 -1.3715
15232SOL    HW247138   1.946   7.421   9.124  1.3973  4.3669  0.5008
15233SOL     OW47139   5.851   5.112   6.031 -0.0684 -0.6822  0.1877
15233SOL    HW147140   5.819   5.041   5.974  0.3539 -0.3065 -0.5432
15233SOL    HW247141   5.946   5.100   6.031 -0.1600 -1.7198  2.2351
15234SOL     OW47142   0.512   1.194  12.212 -0.3151 -0.1753 -0.2162
15234SOL    HW147143   0.588   1.198  12.154 -1.5883 -1.5329 -2.0958
15234SOL    HW247144   0.543   1.147  12.289  1.0785  0.4658 -0.3552
15235SOL     OW47145   0.387   4.158   3.132  0.4717 -0.1267 -0.2306
15235SOL    HW147146   0.410   4.166   3.225  3.1336  0.6253 -0.8548
15235SOL    HW247147   0.410   4.067   3.111  2.0450  0.3184 -0.6003
15236SOL     OW47148   0.270   2.955  12.045  0.3882  0.0914 -0.3244
15236SOL    HW147149   0.204   3.025  12.038 -0.5629 -0.9204 -2.5707
15236SOL    HW247150   0.329   2.984  12.115 -2.6116  0.8922  2.1095
15237SOL     OW47151   1.574   7.504  11.675  0.1648  0.2640  0.4140
15237SOL    HW147152   1.653   7.545  11.709  0.1843 -0.1523  0.8866
15237SOL    HW247153   1.530   7.470  11.753  0.6759 -1.5597 -0.0554
15238SOL     OW47154   1.332   5.542   6.547  0.3478 -0.6902 -0.4355
15238SOL    HW147155   1.390   5.511   6.478  1.0429  0.5659 -0.4440
15238SOL    HW247156   1.377   5.617   6.585  0.3326 -1.7585  1.8967
15239SOL     OW47157   0.881   0.058   4.229  0.3867 -0.5391 -0.4504
15239SOL    HW147158   0.873   0.062   4.324  0.3758 -0.7739 -0.4415
15239SOL    HW247159   0.876   0.150   4.201  1.5794 -0.3564 -0.1280
15240SOL     OW47160   4.151   6.123   4.775 -0.0763 -0.3383 -0.0143
15240SOL    HW147161   4.160   6.064   4.850  0.8054 -0.3564 -0.1208
15240SOL    HW247162   4.115   6.068   4.706  1.6363 -1.0345 -0.4077
15241SOL     OW47163   5.109   1.110   6.566 -0.2179  0.1522  0.3077
15241SOL    HW147164   5.143   1.038   6.513  2.3147  0.3820  1.4611
15241SOL    HW247165   5.026   1.078   6.600  0.2226 -1.7339 -0.2468
15242SOL     OW47166   4.754   2.938   9.138  0.2076 -0.2591  0.3895
15242SOL    HW147167   4.743   3.030   9.113  2.0037 -0.2921 -0.6524
15242SOL    HW247168   4.818   2.941   9.209  0.7217 -0.7516 -0.0530
15243SOL     OW47169   4.748   1.286   4.500  0.6159  0.3658 -0.4233
15243SOL    HW147170   4.762   1.273   4.406  0.4369 -0.4455 -0.3427
15243SOL    HW247171   4.666   1.335   4.505 -0.2270 -0.9721 -0.6450
15244SOL     OW47172   5.383   1.884   6.037  0.0222 -0.8541  0.2023
15244SOL    HW147173   5.291   1.858   6.046  0.1766 -2.5600 -2.2334
15244SOL    HW247174   5.431   1.802   6.027  1.3542  0.0671 -1.7704
15245SOL     OW47175   7.532   2.845   9.640  0.3199  0.0960  0.2015
15245SOL    HW147176   7.437   2.855   9.648  0.6400  2.2903  2.2834
15245SOL    HW247177   7.561   2.819   9.727  1.7480  0.5746 -0.1127
15246SOL     OW47178   0.864   6.371   1.643  0.4187  0.0124  0.1853
15246SOL    HW147179   0.770   6.364   1.629  0.5353 -1.6759  0.1199
15246SOL    HW247180   0.897   6.281   1.640  2.3858  0.6827 -2.1598
15247SOL     OW47181   7.596   1.557   2.693  0.3205  0.0990 -0.0552
15247SOL    HW147182   7.653   1.589   2.624 -0.7370  1.6938 -0.2580
15247SOL    HW247183   7.532   1.628   2.706  0.2422 -0.3162  2.2558
15248SOL     OW47184   4.316   3.906   7.644  0.4635  0.1391  0.2350
15248SOL    HW147185   4.271   3.922   7.727 -0.8948 -1.5654 -0.1279
15248SOL    HW247186   4.250   3.920   7.577  0.7126 -1.4540 -0.3775
15249SOL     OW47187   4.247   4.910   2.162  0.2345  0.3288 -0.0151
15249SOL    HW147188   4.175   4.928   2.222  0.3571  0.1800  0.1783
15249SOL    HW247189   4.325   4.906   2.217  0.1558 -1.2534  0.0399
15250SOL     OW47190   5.502   5.531   9.849 -0.4527  0.0716  0.0411
15250SOL    HW147191   5.581   5.573   9.814  1.1217 -1.0980  1.9573
15250SOL    HW247192   5.434   5.553   9.786  0.8871  2.9809 -0.5970
15251SOL     OW47193   7.591   7.137   8.008 -0.0506 -0.0067 -0.0885
15251SOL    HW147194   7.672   7.086   8.014  1.2710  1.5694 -2.8070
15251SOL    HW247195   7.602   7.206   8.073  0.3182 -0.3469  0.2233
15252SOL     OW47196   5.176   2.344   9.242  0.1318 -0.6258  0.4770
15252SOL    HW147197   5.264   2.353   9.280  1.1827 -1.2310 -1.6386
15252SOL    HW247198   5.118   2.337   9.317  2.0839 -1.8076  1.9688
15253SOL     OW47199   7.793   5.451   9.335 -0.1336  0.2664 -0.0039
15253SOL    HW147200   7.804   5.525   9.275  0.0083 -0.5915 -1.0603
15253SOL    HW247201   7.698   5.445   9.348 -0.1588  0.4892 -0.0753
15254SOL     OW47202   2.068   6.298   3.151 -0.0006 -0.5209 -0.0234
15254SOL    HW147203   2.067   6.367   3.217  0.1294  0.9903 -1.5267
15254SOL    HW247204   2.072   6.217   3.201 -2.7713  0.3911  1.9303
15255SOL     OW47205   6.096   3.992   0.382  0.3772  0.1819 -0.1862
15255SOL    HW147206   6.008   4.009   0.351  0.1874  0.3836  0.4475
15255SOL    HW247207   6.150   3.993   0.303 -0.0078  1.2649 -0.4450
15256SOL     OW47208   7.247   7.044   1.501 -0.0343  0.3265 -0.0232
15256SOL    HW147209   7.318   7.106   1.484  1.2936 -0.7754  1.2430
15256SOL    HW247210   7.290   6.958   1.503 -1.5836 -0.4845 -0.2367
15257SOL     OW47211   2.746   5.681   4.092 -0.3529 -1.1885  0.0387
15257SOL    HW147212   2.811   5.721   4.149  1.1032 -0.9784 -1.6868
15257SOL    HW247213   2.686   5.752   4.069  0.2331 -0.7922 -0.2869
15258SOL     OW47214   0.189   4.907   9.339  0.1372 -0.5058  0.3676
15258SOL    HW147215   0.207   4.828   9.391 -2.1934 -2.6625 -1.8332
15258SOL    HW247216   0.110   4.944   9.377 -0.3184 -0.8166 -0.2659
15259SOL     OW47217   0.530   6.438   7.652  0.9225 -0.3096  0.3933
15259SOL    HW147218   0.463   6.453   7.719  0.3334  2.8967 -0.7428
15259SOL    HW247219   0.609   6.479   7.688  1.2073 -0.5208  0.0183
15260SOL     OW47220   5.375   3.846   7.150  0.4636  0.0226 -0.0797
15260SOL    HW147221   5.449   3.789   7.174  1.2080 -0.4994 -3.1761
15260SOL    HW247222   5.398   3.931   7.186  2.7291 -0.0873 -1.1018
15261SOL     OW47223   7.387   7.618   6.640 -1.0060  0.4661  0.4002
15261SOL    HW147224   7.392   7.526   6.616 -0.9935  0.0286  1.9729
15261SOL    HW247225   7.296   7.629   6.669 -1.2327  1.1633 -0.5183
15262SOL     OW47226   2.080   7.209   6.336 -0.0864 -0.4740  0.2259
15262SOL    HW147227   2.151   7.273   6.340 -1.9595  1.6788  1.0471
15262SOL    HW247228   2.037   7.226   6.252 -2.1233  1.2058  1.5045
15263SOL     OW47229   2.175   5.027   0.238 -0.4106 -0.6016  0.0877
15263SOL    HW147230   2.126   4.944   0.239 -0.3136 -0.7529 -2.0496
15263SOL    HW247231   2.267   5.001   0.233 -0.3827 -0.3794 -0.6495
15264SOL     OW47232   4.870   5.769   9.656 -0.2695  0.0131  0.0010
15264SOL    HW147233   4.882   5.726   9.741  2.6403 -0.3626 -0.4711
15264SOL    HW247234   4.888   5.700   9.592  0.2458  0.9104 -0.8496
15265SOL     OW47235   1.842   4.495   3.737  0.0923  0.1574 -0.0363
15265SOL    HW147236   1.922   4.505   3.788 -0.0087  1.6197 -0.1267
15265SOL    HW247237   1.795   4.578   3.749 -1.3442 -0.6130 -0.1028
15266SOL     OW47238   5.864   5.712   6.679  0.0415  0.6874 -0.1712
15266SOL    HW147239   5.808   5.715   6.757  0.3957 -0.5527  0.1533
15266SOL    HW247240   5.952   5.728   6.711  0.6133 -2.4977  0.1980
15267SOL     OW47241   0.238   2.634   1.871 -0.4766  0.3995  0.1085
15267SOL    HW147242   0.205   2.545   1.860 -0.0017  0.0048  1.6206
15267SOL    HW247243   0.313   2.640   1.812 -1.2535  0.2319 -0.9285
15268SOL     OW47244   5.272   2.618  12.273  0.3746  0.1186  0.2159
15268SOL    HW147245   5.201   2.593  12.215 -0.6613  1.2935  0.9267
15268SOL    HW247246   5.270   2.554  12.344  0.4369 -0.2101 -0.0744
15269SOL     OW47247   5.872   1.083  10.461 -0.4382  0.1649 -0.7478
15269SOL    HW147248   5.820   1.159  10.434  0.1682  0.9074  0.0783
15269SOL    HW247249   5.932   1.068  10.387 -0.0088  1.0320 -0.5997
15270SOL     OW47250   2.034   3.146   9.975 -0.1483 -0.0063  0.6767
15270SOL    HW147251   2.095   3.214   9.947  0.1090 -0.7738 -0.7189
15270SOL    HW247252   2.090   3.075  10.006 -0.3720 -0.1602  0.7289
15271SOL     OW47253   0.491   5.451  11.546  0.2678 -0.1527 -0.1327
15271SOL    HW147254   0.424   5.519  11.540  0.0510 -0.2408  1.0342
15271SOL    HW247255   0.444   5.374  11.578  1.0064 -0.0490  1.2838
15272SOL     OW47256   5.446   0.076  11.093 -0.0243 -0.4331 -0.0828
15272SOL    HW147257   5.517   0.029  11.138 -0.2333 -2.0361 -1.3096
15272SOL    HW247258   5.441   0.160  11.137  2.9519 -0.0640 -0.2525
15273SOL     OW47259   0.157   7.757   0.748 -0.3331 -0.2193  0.2203
15273SOL    HW147260   0.220   7.687   0.765  0.7089  0.7765  0.5589
15273SOL    HW247261   0.210   7.837   0.741 -1.5045  0.5687 -0.0235
15274SOL     OW47262   3.856   5.680  11.911 -0.6519  0.1057 -0.8683
15274SOL    HW147263   3.893   5.596  11.939 -0.3071  0.4724 -0.1817
15274SOL    HW247264   3.771   5.684  11.955 -0.7225  0.0582 -1.0007
15275SOL     OW47265   1.731   4.751   3.706 -0.0633 -0.0812  0.0575
15275SOL    HW147266   1.733   4.846   3.694  0.8867 -0.1618 -0.4454
15275SOL    HW247267   1.638   4.732   3.722 -0.1810  0.9951  0.7619
15276SOL     OW47268   2.075   7.432   1.308  0.0236 -0.0394 -0.3865
15276SOL    HW147269   2.055   7.473   1.224  0.8314 -1.4316 -1.3142
15276SOL    HW247270   2.135   7.361   1.286 -0.4867 -1.0501  1.2588
15277SOL     OW47271   7.186   4.562   1.972  0.0214  0.3200 -0.0306
15277SOL    HW147272   7.277   4.535   1.961 -0.3578 -1.1945  0.3021
15277SOL    HW247273   7.176   4.637   1.913  1.4883  0.5532 -0.0258
15278SOL     OW47274   4.061   7.745   0.571  0.3103  0.3269 -0.2060
15278SOL    HW147275   4.111   7.815   0.612  0.4902 -0.1567  0.4082
15278SOL    HW247276   4.029   7.692   0.644 -1.0782  0.6086 -0.5776
15279SOL     OW47277   1.349   5.830   0.827 -0.3225 -0.1170 -0.5612
15279SOL    HW147278   1.403   5.754   0.805  0.7575  0.3932  0.2478
15279SOL    HW247279   1.261   5.805   0.800  0.0233 -1.6341 -0.3760
15280SOL     OW47280   4.790   5.704   4.803  0.4073  0.1880  0.4946
15280SOL    HW147281   4.706   5.705   4.758 -0.4456 -1.5015  1.9416
15280SOL    HW247282   4.831   5.787   4.779 -1.5489  0.9408 -0.4363
15281SOL     OW47283   2.490   1.703   1.830  0.0518 -0.2472  0.1972
15281SOL    HW147284   2.402   1.739   1.841  0.6867  1.0519  1.3206
15281SOL    HW247285   2.536   1.725   1.911  1.3633 -1.0452 -0.2932
15282SOL     OW47286   2.090   6.493   4.483 -0.0931  0.6665 -0.4000
15282SOL    HW147287   2.027   6.521   4.549 -0.8620  0.0001 -0.8298
15282SOL    HW247288   2.088   6.563   4.417  0.5334  1.2375  0.1798
15283SOL     OW47289   7.427   4.521   3.546 -0.2924 -0.5268 -0.1317
15283SOL    HW147290   7.435   4.501   3.639  0.8514 -2.0757 -0.5118
15283SOL    HW247291   7.373   4.600   3.542  1.0993  0.5886  1.9184
15284SOL     OW47292   6.390   2.469   2.030 -0.4946  0.0835 -0.0303
15284SOL    HW147293   6.407   2.513   1.947 -0.5108 -0.3257 -0.2509
15284SOL    HW247294   6.471   2.478   2.079 -0.5133  0.3995 -0.0557
15285SOL     OW47295   5.663   4.055  11.923 -0.0580 -0.3782  0.4081
15285SOL    HW147296   5.708   4.108  11.989 -0.0966  1.0549 -0.6898
15285SOL    HW247297   5.733   4.008  11.879  0.2489  0.7304 -0.3152
15286SOL     OW47298   5.493   4.603   3.356 -0.0852  0.3523  0.0768
15286SOL    HW147299   5.555   4.664   3.315  0.8515 -0.9388 -0.5134
15286SOL    HW247300   5.482   4.636   3.445  1.2213  0.8036  0.0951
15287SOL     OW47301   5.861   2.033  11.455 -0.2585 -0.1466  0.0551
15287SOL    HW147302   5.802   1.958  11.451 -0.9427  0.4311 -1.7778
15287SOL    HW247303   5.948   1.994  11.446 -0.1856 -1.0732  3.5332
15288SOL     OW47304   1.978   2.108   6.258  0.1923 -0.6833  0.6563
15288SOL    HW147305   1.886   2.131   6.249  0.2056 -1.1207 -0.9136
15288SOL    HW247306   2.008   2.094   6.168  1.5476 -1.4603  1.1999
15289SOL     OW47307   0.548   6.313  10.540  0.2765  0.2727 -0.1563
15289SOL    HW147308   0.642   6.298  10.545  0.6617  2.1368 -1.1022
15289SOL    HW247309   0.526   6.363  10.619 -0.2884 -1.5775  0.9413
15290SOL     OW47310   1.786   2.902   1.893 -0.0980  0.2112 -0.0821
15290SOL    HW147311   1.862   2.931   1.842 -0.4189  0.4681 -0.4204
15290SOL    HW247312   1.820   2.832   1.949  0.2553 -0.0815 -0.6539
15291SOL     OW47313   3.940   5.025   8.597 -0.1342 -0.1517  0.1895
15291SOL    HW147314   3.869   4.966   8.622  0.7621 -0.8867  1.1243
15291SOL    HW247315   3.959   5.075   8.677 -0.9441  1.5141 -0.6168
15292SOL     OW47316   7.382   2.783   4.383 -0.4004  0.0736  0.1266
15292SOL    HW147317   7.393   2.691   4.360  0.2744  0.7030 -2.3725
15292SOL    HW247318   7.321   2.817   4.318 -1.4613  1.2123  1.6339
15293SOL     OW47319   5.087   1.617   7.894 -0.2512 -0.1110  0.1294
15293SOL    HW147320   5.170   1.663   7.884  0.5125 -1.4464  0.1174
15293SOL    HW247321   5.110   1.525   7.889 -1.4533 -0.5749  2.1137
15294SOL     OW47322   1.028   0.984   3.387  0.2823  0.1202  0.1297
15294SOL    HW147323   1.113   0.976   3.430  0.5546  1.9068  0.0313
15294SOL    HW247324   0.965   0.947   3.449  1.0158 -0.2756  0.6474
15295SOL     OW47325   5.936   1.867   0.319 -0.0641  0.2959  0.1318
15295SOL    HW147326   5.897   1.913   0.244 -0.3856  2.0163  1.3098
15295SOL    HW247327   5.917   1.923   0.394  1.8753 -0.4472  1.2405
15296SOL     OW47328   0.949   4.086   3.414 -0.1871 -0.5194 -0.0045
15296SOL    HW147329   0.853   4.086   3.420 -0.1736  0.5948  0.5835
15296SOL    HW247330   0.977   4.140   3.488  0.8814 -0.5399 -0.3805
15297SOL     OW47331   7.484   3.965   8.977 -0.0112  0.0848  0.5338
15297SOL    HW147332   7.412   3.912   9.012 -1.8450  0.4917 -2.2567
15297SOL    HW247333   7.504   4.027   9.048 -1.4364 -0.9622  1.9334
15298SOL     OW47334   0.048   5.650   1.088 -0.3132 -0.2512 -0.0194
15298SOL    HW147335   0.043   5.590   1.162  0.8184 -1.5240 -0.9326
15298SOL    HW247336   0.026   5.597   1.012  1.9521  0.0973 -1.0162
15299SOL     OW47337   4.473   1.464  12.335  0.5422 -0.3847 -0.9662
15299SOL    HW147338   4.420   1.537  12.369  1.3448 -0.2975  0.1594
15299SOL    HW247339   4.509   1.497  12.253  0.9698  0.5410 -0.4268
15300SOL     OW47340   5.438   4.591   1.079 -0.4808  0.0962  0.4991
15300SOL    HW147341   5.528   4.624   1.078 -0.8253  1.0700  0.4300
15300SOL    HW247342   5.443   4.510   1.130  0.7508 -0.8694 -1.0789
15301SOL     OW47343   4.963   3.863   9.048  0.3781  0.1673 -0.0227
15301SOL    HW147344   5.014   3.783   9.061  0.9011  0.5092  0.0674
15301SOL    HW247345   4.913   3.847   8.968  0.6754 -0.1513 -0.1473
15302SOL     OW47346   2.665   2.519   5.436  0.2622  0.5040 -0.4437
15302SOL    HW147347   2.665   2.455   5.507 -1.8199  0.0938 -0.7590
15302SOL    HW247348   2.672   2.467   5.356 -1.0556  0.6794 -0.6829
15303SOL     OW47349   1.286   4.070  10.532  0.7420 -0.4206 -0.2611
15303SOL    HW147350   1.211   4.129  10.539  2.1361  1.6541 -1.6517
15303SOL    HW247351   1.338   4.088  10.610  0.7900 -0.3467 -0.3094
15304SOL     OW47352   1.655   1.999   7.450  0.3438 -0.3537  0.1940
15304SOL    HW147353   1.739   1.975   7.490 -0.7995 -1.6888  1.9847
15304SOL    HW247354   1.623   2.070   7.505  0.1754 -0.0182 -0.3337
15305SOL     OW47355   0.748   0.689   8.990  0.2206 -0.2039 -0.5851
15305SOL    HW147356   0.762   0.651   8.903  1.5180  0.8949 -0.8834
15305SOL    HW247357   0.654   0.707   8.992  0.0957 -0.6322 -1.5962
15306SOL     OW47358   7.934   2.493   1.325  0.4901  0.3616  0.2166
15306SOL    HW147359   7.998   2.426   1.303  0.7795  0.4970  0.6384
15306SOL    HW247360   7.953   2.515   1.416 -0.4741  0.0432  0.5063
15307SOL     OW47361   7.274   1.551  11.496 -0.7710 -0.0611 -0.1289
15307SOL    HW147362   7.313   1.638  11.497 -0.7844 -0.0562 -0.0209
15307SOL    HW247363   7.204   1.555  11.560 -0.0598 -0.4784  0.6915
15308SOL     OW47364   7.008   2.017   6.010 -0.4134  0.1939 -0.3772
15308SOL    HW147365   7.081   2.056   6.058  0.1118 -1.1164 -0.0778
15308SOL    HW247366   6.931   2.067   6.038 -0.0931 -0.3478  1.6386
15309SOL     OW47367   5.873   1.590   1.512 -0.0973  0.3341 -0.1465
15309SOL    HW147368   5.877   1.678   1.476  0.6244  1.3673  2.3002
15309SOL    HW247369   5.780   1.568   1.512 -0.2329  0.8595 -1.2428
15310SOL     OW47370   7.099   5.899  12.389 -0.6256 -0.4562 -0.1826
15310SOL    HW147371   7.092   5.949  12.470 -2.8220 -1.2700  0.1980
15310SOL    HW247372   7.012   5.860  12.377  0.9308 -4.2150 -0.4173
15311SOL     OW47373   1.633   0.460   0.803 -0.8987 -0.2986 -0.2599
15311SOL    HW147374   1.646   0.529   0.868  3.8214  0.0122 -1.1595
15311SOL    HW247375   1.600   0.505   0.726 -0.0092  0.6347 -0.1257
15312SOL     OW47376   5.165   6.853  10.765  0.0140 -0.4837 -0.8592
15312SOL    HW147377   5.071   6.862  10.776 -0.0758  0.4675 -2.1831
15312SOL    HW247378   5.184   6.762  10.788 -1.5167 -1.2547 -2.4762
15313SOL     OW47379   2.918   4.728   6.886  0.3745 -0.3887  0.3763
15313SOL    HW147380   3.003   4.751   6.849  0.7856 -0.3790  1.3103
15313SOL    HW247381   2.886   4.810   6.925  0.8404 -0.8475  1.7643
15314SOL     OW47382   0.132   0.979  11.867 -0.0748 -0.5326 -0.1236
15314SOL    HW147383   0.203   0.996  11.805 -0.9790 -1.0044 -1.3135
15314SOL    HW247384   0.163   0.905  11.919  0.7641 -0.0188  0.1243
15315SOL     OW47385   6.644   3.413   7.891  0.9200  0.0632  0.0495
15315SOL    HW147386   6.716   3.351   7.898  1.4174  0.7090  0.9627
15315SOL    HW247387   6.686   3.498   7.882  0.2535  0.3167 -0.8307
15316SOL     OW47388   6.913   4.934   2.053  0.4136 -0.2877 -0.0137
15316SOL    HW147389   6.884   4.930   1.962 -1.1296 -1.3700  0.4963
15316SOL    HW247390   6.875   4.857   2.094  0.0926  0.7980  1.8389
15317SOL     OW47391   4.195   4.557   5.537  0.0794 -0.2960 -0.6166
15317SOL    HW147392   4.200   4.636   5.591 -2.8190  0.0458 -0.6756
15317SOL    HW247393   4.264   4.568   5.472  0.2678  1.8124 -0.1461
15318SOL     OW47394   7.633   5.879   2.493  0.5217  0.4508 -0.3770
15318SOL    HW147395   7.648   5.879   2.398 -0.0719 -0.1662 -0.4841
15318SOL    HW247396   7.658   5.791   2.521  0.9973  0.7280  0.1024
15319SOL     OW47397   7.701   5.632   8.387  0.2181 -0.1315 -0.2569
15319SOL    HW147398   7.727   5.613   8.477  0.9958  0.3672 -0.3611
15319SOL    HW247399   7.605   5.636   8.390  0.2407  3.5802  1.3866
15320SOL     OW47400   3.404   1.644   7.136 -0.1238 -0.4175 -0.4932
15320SOL    HW147401   3.415   1.651   7.231  0.4254 -2.1105 -0.3958
15320SOL    HW247402   3.439   1.726   7.101  0.6010 -0.2012  0.7042
15321SOL     OW47403   1.336   7.565  12.235  0.2232 -0.2985  0.4817
15321SOL    HW147404   1.281   7.532  12.306  2.2434 -1.2139  1.7331
15321SOL    HW247405   1.274   7.595  12.169 -1.7974  1.6873  3.0573
15322SOL     OW47406   6.242   3.879   1.211 -0.2219  0.2442 -0.3194
15322SOL    HW147407   6.153   3.902   1.236 -0.2890 -1.5143  1.3764
15322SOL    HW247408   6.236   3.787   1.183  0.9900  0.1925 -0.4833
15323SOL     OW47409   1.452   1.982   5.893 -0.0410 -0.4683  0.1640
15323SOL    HW147410   1.500   2.012   5.816 -1.4100  1.4845 -0.0113
15323SOL    HW247411   1.444   2.059   5.948 -0.1229 -1.5479  1.7339
15324SOL     OW47412   6.020   7.668  11.746 -0.3422 -0.6912 -0.5760
15324SOL    HW147413   5.964   7.746  11.746 -0.3448 -0.6760  0.3476
15324SOL    HW247414   6.050   7.661  11.837  1.0301 -0.7933 -1.0154
15325SOL     OW47415   4.447   3.820   7.410  0.4640  0.2144  0.3332
15325SOL    HW147416   4.539   3.824   7.437 -0.0023 -0.8105  2.2570
15325SOL    HW247417   4.398   3.832   7.491 -1.0684 -1.0308 -0.3696
15326SOL     OW47418   1.219   5.531   0.577  0.3318  0.2704  0.5596
15326SOL    HW147419   1.245   5.559   0.489 -0.1322  0.6998  0.5591
15326SOL    HW247420   1.184   5.609   0.619 -0.1839 -0.1084  0.8539
15327SOL     OW47421   2.401   7.514   4.510 -0.3715  0.0303 -1.0008
15327SOL    HW147422   2.405   7.590   4.451  0.0250  0.7520 -0.0659
15327SOL    HW247423   2.390   7.551   4.597 -1.4713 -1.0518 -0.6490
15328SOL     OW47424   5.335   1.952  10.179 -0.1419  0.4399 -0.3702
15328SOL    HW147425   5.336   2.047  10.182 -0.1700  0.4429  2.6601
15328SOL    HW247426   5.259   1.927  10.233  0.7177 -1.2661  0.1427
15329SOL     OW47427   0.040   2.713   2.851 -0.1041 -0.3512  0.1998
15329SOL    HW147428   0.004   2.768   2.920 -1.2603 -0.8619  0.0351
15329SOL    HW247429   0.135   2.721   2.859 -0.2387  1.7494  0.1114
15330SOL     OW47430   5.113   0.756   6.100  0.3203 -0.1723 -0.1708
15330SOL    HW147431   5.165   0.681   6.130  0.0629 -0.7777 -1.2041
15330SOL    HW247432   5.024   0.722   6.093 -0.0041  0.5290  0.3772
15331SOL     OW47433   6.458   4.323   4.722  0.2454 -0.3867 -0.0226
15331SOL    HW147434   6.431   4.384   4.790  0.0028  1.0387 -1.3283
15331SOL    HW247435   6.377   4.279   4.695  0.5703 -2.0975  1.6128
15332SOL     OW47436   5.626   1.049   6.997  0.0319  0.5850  0.4206
15332SOL    HW147437   5.696   0.985   6.984  0.7916  1.6457 -1.0160
15332SOL    HW247438   5.638   1.080   7.087  0.3277 -0.4723  0.7571
15333SOL     OW47439   7.408   7.136   8.899  0.0328 -0.1531  0.3628
15333SOL    HW147440   7.401   7.170   8.810  0.7976 -0.3405  0.2243
15333SOL    HW247441   7.373   7.205   8.954 -0.9338 -0.2467 -0.1182
15334SOL     OW47442   3.563   7.498   3.698 -0.1854 -0.0272 -0.1594
15334SOL    HW147443   3.581   7.414   3.657  1.6394 -0.0681  0.6386
15334SOL    HW247444   3.620   7.560   3.651 -1.5357  0.8072 -0.7758
15335SOL     OW47445   4.191   2.932  10.232  0.1206 -0.0762 -0.0620
15335SOL    HW147446   4.188   2.854  10.177  1.1725 -1.4768  1.7409
15335SOL    HW247447   4.112   2.926  10.287  0.2298  0.0981  0.1151
15336SOL     OW47448   5.391   3.494   2.481 -0.5923 -0.1975 -0.4339
15336SOL    HW147449   5.392   3.453   2.395  0.8743 -1.4291  0.1090
15336SOL    HW247450   5.318   3.451   2.527 -1.2683  0.3398 -0.9926
15337SOL     OW47451   5.036   6.989   4.101 -0.0269 -0.3828  0.0673
15337SOL    HW147452   4.963   6.962   4.157  0.4110 -1.3175  0.2122
15337SOL    HW247453   5.114   6.957   4.146  0.3561 -0.9101 -0.9299
15338SOL     OW47454   3.585   7.547  11.532  0.7071 -0.3845 -0.2395
15338SOL    HW147455   3.624   7.544  11.619  0.3714 -0.6104 -0.0946
15338SOL    HW247456   3.504   7.597  11.544 -0.1088 -1.6876 -0.1086
15339SOL     OW47457   3.331   1.378   0.961  0.1889 -0.1172  0.2683
15339SOL    HW147458   3.267   1.421   1.017  0.5220  1.4708 -0.4873
15339SOL    HW247459   3.283   1.308   0.918 -0.4996 -0.2515  1.2430
15340SOL     OW47460   7.244   3.982  11.195  0.1687  0.0151  0.3045
15340SOL    HW147461   7.199   3.937  11.124 -0.7885  0.5562  0.5512
15340SOL    HW247462   7.322   3.929  11.211  0.2200 -0.3029 -0.9048
15341SOL     OW47463   4.076   3.698   1.365  0.3124  0.3010  0.5377
15341SOL    HW147464   4.134   3.740   1.302  1.3032 -0.8399  0.6692
15341SOL    HW247465   4.022   3.639   1.312  0.2455  0.3040  0.6013
15342SOL     OW47466   3.605   7.910   0.986 -0.1883 -0.6873  0.6857
15342SOL    HW147467   3.584   7.817   0.992 -0.4135 -0.6106  1.1038
15342SOL    HW247468   3.541   7.945   0.925  0.5496 -1.0005 -0.2907
15343SOL     OW47469   1.138   5.948   0.264 -0.5138  0.4491  0.5739
15343SOL    HW147470   1.190   5.940   0.344  1.2811 -0.3150 -0.6257
15343SOL    HW247471   1.165   6.032   0.225 -0.7043  0.3855  0.2985
15344SOL     OW47472   3.452   0.339   0.338 -0.7285 -0.2163 -0.0263
15344SOL    HW147473   3.395   0.392   0.394 -1.5927  1.1950 -2.1018
15344SOL    HW247474   3.424   0.360   0.249 -0.1608 -3.1995 -1.0125
15345SOL     OW47475   0.428   7.018   5.425  0.5321  0.4874  0.6174
15345SOL    HW147476   0.378   7.032   5.344 -0.3897 -0.0166  1.0858
15345SOL    HW247477   0.413   6.926   5.447  0.8947  0.5819  1.2883
15346SOL     OW47478   1.389   4.946   9.446  0.1413  0.0832  0.3078
15346SOL    HW147479   1.444   5.011   9.489 -0.4379  0.3260  0.6811
15346SOL    HW247480   1.451   4.892   9.397  0.8042 -0.1078  1.3225
15347SOL     OW47481   7.041   7.466   5.947  0.0277 -0.4954 -0.7125
15347SOL    HW147482   7.137   7.466   5.952  0.0684 -2.6837 -0.5307
15347SOL    HW247483   7.013   7.503   6.031  0.7372 -1.7818  0.1168
15348SOL     OW47484   3.756   7.474   0.953 -0.1766 -0.1505 -0.0649
15348SOL    HW147485   3.800   7.390   0.962  2.4342  1.1023 -0.3875
15348SOL    HW247486   3.817   7.537   0.989 -1.2066  1.8612 -1.6439
15349SOL     OW47487   4.821   1.062   9.453 -0.4491 -0.4379  0.2094
15349SOL    HW147488   4.860   1.146   9.428 -0.4742 -0.7182 -0.8277
15349SOL    HW247489   4.729   1.083   9.471 -0.5031 -0.2741 -0.2450
15350SOL     OW47490   2.377   0.132   2.966 -0.3443  0.0360  0.0064
15350SOL    HW147491   2.387   0.106   2.874 -1.3910  2.3711 -0.8595
15350SOL    HW247492   2.466   0.143   2.998  0.0263  0.0172 -0.9886
15351SOL     OW47493   1.844   2.989   0.642 -0.1748 -0.0436 -0.2988
15351SOL    HW147494   1.917   2.926   0.647  0.1679  0.1297 -2.1680
15351SOL    HW247495   1.780   2.956   0.704  2.0646  0.6221  2.5979
15352SOL     OW47496   5.114   0.410   5.924  0.0053 -0.8173  0.4107
15352SOL    HW147497   5.133   0.318   5.904  2.8373 -0.2794  0.2530
15352SOL    HW247498   5.117   0.454   5.839  0.2481 -0.3331  0.6648
15353SOL     OW47499   7.547   5.014   5.374  0.0657 -0.1931  0.0889
15353SOL    HW147500   7.620   5.020   5.311  1.3406 -0.9094  1.4329
15353SOL    HW247501   7.479   4.966   5.327  1.9974 -3.1812  0.0459
15354SOL     OW47502   6.124   2.671   4.671 -0.2800  0.1496  0.2511
15354SOL    HW147503   6.178   2.655   4.594  0.7173  1.2797  0.6881
15354SOL    HW247504   6.091   2.584   4.695  0.9398 -0.4923 -0.3236
15355SOL     OW47505   5.262   4.080  10.372  0.1047 -0.1399  0.0180
15355SOL    HW147506   5.226   4.053  10.457 -1.4619 -0.1892 -0.6421
15355SOL    HW247507   5.187   4.109  10.322  1.1010  0.5147 -1.1516
15356SOL     OW47508   0.813   6.809   7.253  0.1995 -0.0255  0.1734
15356SOL    HW147509   0.891   6.863   7.242  0.9249 -1.0110  0.3401
15356SOL    HW247510   0.825   6.737   7.190  0.1462 -0.9698  1.2077
15357SOL     OW47511   1.775   0.534  11.129  0.1872 -0.1881  0.0887
15357SOL    HW147512   1.684   0.542  11.098  0.6998  0.8584 -1.2152
15357SOL    HW247513   1.794   0.440  11.121 -0.3506 -0.2304 -0.9432
15358SOL     OW47514   4.936   0.246   1.876  0.2540  0.1080  0.2466
15358SOL    HW147515   4.939   0.254   1.780 -0.7494 -0.1374  0.1883
15358SOL    HW247516   5.007   0.186   1.897  0.0207 -0.4118 -0.4169
15359SOL     OW47517   7.551   5.692   5.112  0.6164 -0.0931  0.1917
15359SOL    HW147518   7.633   5.723   5.151  1.4718 -2.0436  0.0633
15359SOL    HW247519   7.579   5.641   5.036 -0.6966 -1.0761  0.3432
15360SOL     OW47520   2.842   0.432  10.793  0.0230  0.2886 -0.0573
15360SOL    HW147521   2.920   0.487  10.785  0.0147  0.3101  0.0085
15360SOL    HW247522   2.774   0.491  10.827 -0.3854  0.6028 -1.3514
15361SOL     OW47523   3.695   3.348  11.588 -0.6652  0.1622 -0.7341
15361SOL    HW147524   3.654   3.426  11.625 -0.0243 -0.7137  2.0679
15361SOL    HW247525   3.624   3.283  11.587 -0.5646  0.0464 -0.5198
15362SOL     OW47526   1.304   2.466  11.511 -0.5325  0.5205  0.2872
15362SOL    HW147527   1.350   2.441  11.591 -0.8163  1.7080  0.8512
15362SOL    HW247528   1.269   2.553  11.530 -0.4516  0.9072 -1.1957
15363SOL     OW47529   5.756   7.361   7.584 -0.2883 -0.5997 -0.5744
15363SOL    HW147530   5.684   7.300   7.598 -0.7078  0.0353  0.0799
15363SOL    HW247531   5.754   7.419   7.660  1.8569 -1.4941  0.2664
15364SOL     OW47532   6.492   7.781   0.938  0.1353  0.4328  0.0108
15364SOL    HW147533   6.496   7.833   0.857  0.5853 -0.3538 -0.4812
15364SOL    HW247534   6.507   7.845   1.007  0.7924  0.9481 -0.5920
15365SOL     OW47535   4.408   4.445  10.618  0.3322  0.3253  0.0847
15365SOL    HW147536   4.426   4.535  10.590 -1.7837  0.6074 -0.4904
15365SOL    HW247537   4.454   4.391  10.554  0.6891  0.9738 -0.2242
15366SOL     OW47538   7.824   4.034  11.620  0.1767  0.4664  0.4924
15366SOL    HW147539   7.745   4.072  11.581  0.7606  1.8853  0.6148
15366SOL    HW247540   7.819   3.941  11.599 -0.2824  0.9292 -1.6691
15367SOL     OW47541   7.034   3.387  10.466  0.0372 -0.0974  0.4785
15367SOL    HW147542   7.037   3.373  10.561 -1.0883  0.4502  0.6158
15367SOL    HW247543   7.095   3.322  10.430  0.3640 -0.4167  1.5563
15368SOL     OW47544   4.095   0.584  11.697  0.0151 -0.1711 -0.2385
15368SOL    HW147545   4.082   0.490  11.709  0.4345 -0.3272 -0.9168
15368SOL    HW247546   4.016   0.613  11.652  0.5745 -0.5165 -1.4886
15369SOL     OW47547   3.961   3.493   3.165 -0.0330  0.0593  0.2284
15369SOL    HW147548   3.897   3.446   3.219 -0.1751  0.8829  0.7959
15369SOL    HW247549   3.968   3.579   3.206  1.1536  0.1166 -0.0466
15370SOL     OW47550   3.229   6.833   2.745  0.0266 -0.3820 -0.5083
15370SOL    HW147551   3.149   6.879   2.771  1.5192  1.0562  1.9979
15370SOL    HW247552   3.234   6.759   2.806  0.3841 -0.7432 -0.9705
15371SOL     OW47553   0.388   2.119   2.622 -0.2476  0.8184  0.1344
15371SOL    HW147554   0.461   2.140   2.681 -0.0638  0.1446  0.1494
15371SOL    HW247555   0.366   2.028   2.642  1.0927 -0.0942 -2.1765
15372SOL     OW47556   0.323   2.508   0.824  0.1741 -0.0429  0.4578
15372SOL    HW147557   0.361   2.429   0.861  1.3313  0.1010 -0.3632
15372SOL    HW247558   0.398   2.565   0.807 -0.4579  0.5129 -0.6163
15373SOL     OW47559   6.504   0.319   0.733 -0.1433  0.1985 -0.1574
15373SOL    HW147560   6.524   0.411   0.720 -0.9645  0.5847  1.1500
15373SOL    HW247561   6.560   0.273   0.670  0.6723  1.5424 -0.4492
15374SOL     OW47562   6.465   3.923   0.569  0.5060 -0.0785 -0.3072
15374SOL    HW147563   6.536   3.865   0.596  0.6824  0.6411  0.8691
15374SOL    HW247564   6.499   3.970   0.493  0.9569 -0.3668 -0.2845
15375SOL     OW47565   4.616   0.727   2.704  0.2310  0.0664 -0.4867
15375SOL    HW147566   4.587   0.638   2.684 -1.9306  0.5573  0.2341
15375SOL    HW247567   4.671   0.717   2.782 -3.3342 -0.3734  2.2747
15376SOL     OW47568   4.256   4.924   0.903 -0.0800  0.1390 -0.7265
15376SOL    HW147569   4.315   4.850   0.921 -0.9211 -0.5033 -0.5333
15376SOL    HW247570   4.314   4.994   0.875  0.7909 -0.4378 -0.4247
15377SOL     OW47571   5.843   0.574   3.037 -0.2336  0.0800 -0.1913
15377SOL    HW147572   5.841   0.488   2.996  1.4823 -2.0797  3.7564
15377SOL    HW247573   5.936   0.596   3.043 -0.6284  2.7007 -1.7070
15378SOL     OW47574   3.441   4.895   1.196  0.1098  0.6719  0.2256
15378SOL    HW147575   3.490   4.896   1.114 -0.4059  1.0630 -0.0863
15378SOL    HW247576   3.508   4.895   1.264  0.5438  0.4266 -0.1904
15379SOL     OW47577   4.347   7.522   4.338 -0.2213 -0.1919  0.0742
15379SOL    HW147578   4.328   7.614   4.354 -3.0808 -0.6879  0.1235
15379SOL    HW247579   4.360   7.485   4.425  0.4334  0.0629  0.0881
15380SOL     OW47580   7.134   0.324   9.155 -0.0229  0.0209  0.8755
15380SOL    HW147581   7.051   0.360   9.186  0.0629 -0.1734  1.3449
15380SOL    HW247582   7.199   0.392   9.173 -0.1590  0.3955  0.0072
15381SOL     OW47583   4.890   5.367   5.593 -0.0379  0.0611  0.2325
15381SOL    HW147584   4.976   5.328   5.574  0.0338  0.4546 -0.2749
15381SOL    HW247585   4.891   5.450   5.545 -0.5434  0.2618  0.5668
15382SOL     OW47586   0.844   7.366  10.715 -0.2060 -0.3521  0.2493
15382SOL    HW147587   0.796   7.397  10.638 -1.1230 -0.6157  0.6977
15382SOL    HW247588   0.936   7.377  10.692 -0.4288  2.9589  0.4474
15383SOL     OW47589   3.536   0.048   5.569  0.6003 -0.9670  0.1382
15383SOL    HW147590   3.521   0.087   5.655  1.0492  1.3281 -0.7429
15383SOL    HW247591   3.628   0.066   5.550 -0.1426  1.1672 -1.9667
15384SOL     OW47592   7.242   2.438   2.893 -0.7981 -0.1157 -0.6376
15384SOL    HW147593   7.278   2.383   2.823 -1.9296 -0.4831 -0.9526
15384SOL    HW247594   7.282   2.403   2.973 -0.8556 -0.8648 -0.9199
15385SOL     OW47595   2.488   0.785  10.747 -0.7658 -0.3668 -0.4949
15385SOL    HW147596   2.467   0.862  10.800  0.3560  0.1951 -0.8263
15385SOL    HW247597   2.412   0.773  10.690 -0.3096  1.5371 -1.5990
15386SOL     OW47598   3.680   1.468   5.916 -0.0071 -0.3282 -0.0875
15386SOL    HW147599   3.596   1.465   5.961 -0.0574 -1.1737 -0.2136
15386SOL    HW247600   3.678   1.549   5.865 -0.5457 -0.1080  0.2777
15387SOL     OW47601   4.823   1.656  10.716  0.3621  0.2889  0.1926
15387SOL    HW147602   4.819   1.727  10.651  0.0223  0.7722  0.7318
15387SOL    HW247603   4.781   1.582  10.672 -0.2321  0.7297 -0.0038
15388SOL     OW47604   4.271   5.030   7.051  0.0146  0.4112  0.3219
15388SOL    HW147605   4.176   5.023   7.049  0.0684 -0.2041 -1.3525
15388SOL    HW247606   4.293   5.088   6.979  0.9816 -0.6019 -0.2365
15389SOL     OW47607   0.517   1.925  11.326  0.1684  0.2116  0.5428
15389SOL    HW147608   0.577   1.903  11.397 -0.2467 -0.3718  0.7180
15389SOL    HW247609   0.433   1.938  11.369 -0.5991 -2.2609 -0.0273
15390SOL     OW47610   5.140   1.772   3.217 -0.4455 -0.1241  0.0626
15390SOL    HW147611   5.055   1.814   3.231 -0.6494 -0.1074 -1.1182
15390SOL    HW247612   5.129   1.683   3.249 -1.6569 -0.8320 -2.1747
15391SOL     OW47613   2.371   3.383   6.033  0.2727 -0.6117 -0.0818
15391SOL    HW147614   2.316   3.435   5.974 -0.2044  1.3996  2.0040
15391SOL    HW247615   2.457   3.383   5.991  0.2754  1.8729 -0.2323
15392SOL     OW47616   3.685   2.184   6.674 -0.6298  0.2033  0.7827
15392SOL    HW147617   3.705   2.169   6.766 -0.4608  0.5928  0.8126
15392SOL    HW247618   3.708   2.276   6.659  0.9075 -0.2903 -0.0584
15393SOL     OW47619   0.797   3.322  10.897  0.1795  0.1797  0.1796
15393SOL    HW147620   0.804   3.267  10.819 -0.1439  0.4401 -0.0403
15393SOL    HW247621   0.843   3.403  10.873 -0.8987  0.7171 -0.1807
15394SOL     OW47622   7.800   5.882   0.747 -0.6588 -0.1249  0.2062
15394SOL    HW147623   7.716   5.838   0.756 -0.0898 -1.6147 -1.2501
15394SOL    HW247624   7.810   5.897   0.653 -0.2621  2.0742  0.5333
15395SOL     OW47625   0.739   7.110   4.523 -0.0217 -0.2390 -0.2007
15395SOL    HW147626   0.707   7.143   4.439  1.5393 -1.2568 -1.2312
15395SOL    HW247627   0.832   7.130   4.523  0.2643 -1.5091  0.6772
15396SOL     OW47628   2.436   4.410  10.331  0.7635  0.7984 -0.1334
15396SOL    HW147629   2.426   4.440  10.241  3.9320  2.9896  0.0933
15396SOL    HW247630   2.442   4.490  10.383 -0.4786 -0.4065  2.0265
15397SOL     OW47631   4.834   3.129   5.779  0.0364  0.6878 -0.0454
15397SOL    HW147632   4.846   3.217   5.744  1.7126  0.5158  0.0026
15397SOL    HW247633   4.858   3.137   5.872  0.9948  0.0525 -0.2201
15398SOL     OW47634   1.249   6.468   2.952 -0.6561  0.3558  0.1646
15398SOL    HW147635   1.237   6.490   2.859  1.1737  1.6468  0.1782
15398SOL    HW247636   1.314   6.397   2.951  0.5077  1.3894  0.4826
15399SOL     OW47637   1.931   4.525   5.520 -0.1538 -0.0572  0.3992
15399SOL    HW147638   1.872   4.450   5.523  0.2898 -0.3981  0.6092
15399SOL    HW247639   1.886   4.588   5.463 -1.0187 -0.0495  1.0690
15400SOL     OW47640   3.816   7.776   8.657  0.2971  0.0312  0.4537
15400SOL    HW147641   3.818   7.847   8.593  1.1206 -0.5973 -0.2383
15400SOL    HW247642   3.862   7.811   8.733 -1.5006  1.1228  1.1219
15401SOL     OW47643   3.780   0.158  10.470 -0.1893 -0.0232 -0.5007
15401SOL    HW147644   3.734   0.091  10.420  0.8376 -1.4874  0.4586
15401SOL    HW247645   3.730   0.168  10.550 -0.3633  0.3948 -0.6582
15402SOL     OW47646   2.020   0.552   0.776  0.0074 -0.2376  0.0305
15402SOL    HW147647   1.959   0.478   0.777 -0.7759  0.3608 -1.0418
15402SOL    HW247648   2.099   0.519   0.816  0.6969 -2.5671 -2.9080
15403SOL     OW47649   6.309   1.099   3.388 -0.1425 -0.6188 -0.3446
15403SOL    HW147650   6.327   1.165   3.321 -1.6465 -0.8698 -1.0508
15403SOL    HW247651   6.293   1.148   3.468  3.5164 -0.3753  0.4039
15404SOL     OW47652   2.983   0.579   8.060 -0.6140  0.0079 -0.3179
15404SOL    HW147653   3.038   0.593   7.983 -1.5097  1.3125 -0.7542
15404SOL    HW247654   3.041   0.537   8.123  1.1724  2.0676 -0.4505
15405SOL     OW47655   3.173   6.267   3.236 -0.2198 -0.3057  0.4879
15405SOL    HW147656   3.226   6.194   3.207  0.4516  0.0508  0.7987
15405SOL    HW247657   3.235   6.338   3.253 -0.8240  0.2374  0.4994
15406SOL     OW47658   0.946   6.271   5.665  0.4654 -0.0348 -0.2349
15406SOL    HW147659   0.998   6.314   5.597 -1.0732  0.5262 -1.1030
15406SOL    HW247660   0.862   6.317   5.664 -0.5172 -1.7084  0.2363
15407SOL     OW47661   2.036   2.725  11.774  0.1621  0.0805  0.7020
15407SOL    HW147662   2.100   2.791  11.747  0.8511 -0.8691 -0.0337
15407SOL    HW247663   2.011   2.681  11.693 -1.2992  0.3090  1.0036
15408SOL     OW47664   6.314   7.566   3.021 -0.2989 -0.1412  0.5991
15408SOL    HW147665   6.385   7.595   3.079 -0.0916  0.1845  0.1953
15408SOL    HW247666   6.333   7.610   2.938 -1.4893  0.6889  0.7375
15409SOL     OW47667   1.119   3.974   6.670 -0.1319  0.0717 -0.2659
15409SOL    HW147668   1.169   4.016   6.741  1.0581  0.3212 -1.2179
15409SOL    HW247669   1.099   3.886   6.704 -0.8615  0.6731  0.9377
15410SOL     OW47670   4.199   6.231   0.145  0.8086 -0.9084 -0.0639
15410SOL    HW147671   4.115   6.221   0.101  0.8103 -0.5615 -0.1458
15410SOL    HW247672   4.250   6.289   0.088  0.1975  0.9734  1.2208
15411SOL     OW47673   3.740   3.380   8.133 -0.2278 -0.2334  0.0024
15411SOL    HW147674   3.650   3.346   8.137 -0.6393  0.8867  0.7566
15411SOL    HW247675   3.789   3.313   8.086 -1.8367 -0.0609 -2.0986
15412SOL     OW47676   3.394   2.215   8.842  0.0055 -0.3297  0.5158
15412SOL    HW147677   3.386   2.122   8.858 -2.2965 -0.1984  0.3949
15412SOL    HW247678   3.352   2.229   8.758 -1.1085  1.0147  1.2565
15413SOL     OW47679   6.365   1.911   2.626  0.0411  0.1299  0.8706
15413SOL    HW147680   6.425   1.982   2.648 -1.4118  0.8722  2.7794
15413SOL    HW247681   6.405   1.833   2.663  0.0334  0.5585  1.8129
15414SOL     OW47682   3.261   2.500   9.939  0.0855  0.2156  0.2768
15414SOL    HW147683   3.335   2.550   9.907 -1.1317  1.5294 -0.5906
15414SOL    HW247684   3.290   2.409   9.935  1.2577  0.6177 -1.1271
15415SOL     OW47685   7.710   7.343   1.624 -0.3976 -0.3426 -0.0316
15415SOL    HW147686   7.779   7.396   1.665 -1.0693 -0.8217  1.7856
15415SOL    HW247687   7.679   7.398   1.552 -0.3654  1.3252  1.1592
15416SOL     OW47688   7.506   7.063  10.607 -0.5786 -0.7825  0.0299
15416SOL    HW147689   7.512   7.005  10.531 -1.0798 -0.6776 -0.0924
15416SOL    HW247690   7.596   7.069  10.640 -0.3094 -0.5756 -0.7404
15417SOL     OW47691   6.966   0.336  12.029 -0.0337  0.3867  0.5216
15417SOL    HW147692   6.987   0.242  12.029  0.4704  0.4941  0.4907
15417SOL    HW247693   6.872   0.340  12.011  0.2543 -0.0440 -1.2035
15418SOL     OW47694   0.935   2.408   0.310  0.2372  0.1486 -0.5316
15418SOL    HW147695   0.980   2.342   0.362 -1.3105 -0.6060 -0.0866
15418SOL    HW247696   0.991   2.485   0.316  0.7259 -0.2967  1.2135
15419SOL     OW47697   3.872   7.661   8.026 -0.3095  0.5636 -0.4877
15419SOL    HW147698   3.823   7.673   7.944 -0.9741 -1.0234 -0.3716
15419SOL    HW247699   3.816   7.604   8.079  0.6095  0.6640  0.6421
15420SOL     OW47700   3.057   5.802   7.122  0.2204 -0.3101 -0.1799
15420SOL    HW147701   3.065   5.826   7.030 -0.2307  1.4956  0.2127
15420SOL    HW247702   2.975   5.754   7.128 -0.1648  0.2927 -0.5867
15421SOL     OW47703   6.896   1.786   5.317  0.2686 -0.4198 -0.0621
15421SOL    HW147704   6.928   1.854   5.377  0.1977  1.1208 -1.6848
15421SOL    HW247705   6.973   1.734   5.296  0.8511  0.6226 -0.6071
15422SOL     OW47706   2.421   6.300   9.445  0.4773 -0.3505 -0.0421
15422SOL    HW147707   2.355   6.317   9.378  1.7161 -2.0060 -1.7900
15422SOL    HW247708   2.482   6.239   9.403  1.2216 -1.5998  2.6751
15423SOL     OW47709   0.872   6.320   6.380 -0.0111 -0.4849  0.2062
15423SOL    HW147710   0.890   6.233   6.343  0.0955  0.4857 -2.1671
15423SOL    HW247711   0.953   6.369   6.367 -0.1369  0.0778  1.3599
15424SOL     OW47712   1.905   5.142   9.984  0.4910  0.8255  0.2031
15424SOL    HW147713   1.909   5.219  10.040 -0.7945  1.1845 -0.1602
15424SOL    HW247714   1.980   5.151   9.925 -0.0243  2.1615 -0.2862
15425SOL     OW47715   4.678   0.414   6.717 -0.4041 -0.1194 -0.0535
15425SOL    HW147716   4.595   0.406   6.764 -0.0269  2.2005  1.1659
15425SOL    HW247717   4.681   0.506   6.690  2.0850  0.0332  0.5587
15426SOL     OW47718   0.822   2.765  10.803 -0.4509 -0.0733  0.4513
15426SOL    HW147719   0.752   2.804  10.751 -1.2535 -0.0495  1.5054
15426SOL    HW247720   0.827   2.820  10.881  1.4082  0.4954 -0.0253
15427SOL     OW47721   4.094   1.713   1.069  0.2342 -0.2748 -0.2384
15427SOL    HW147722   4.090   1.763   1.151  0.3647 -0.0239 -0.3842
15427SOL    HW247723   4.127   1.627   1.095 -1.0688 -0.6749  0.1860
15428SOL     OW47724   7.280   7.337   9.062 -0.2004 -0.2164  0.3575
15428SOL    HW147725   7.245   7.310   9.147  0.8863 -0.4121  0.7636
15428SOL    HW247726   7.236   7.419   9.043  0.3689  0.4281  1.6784
15429SOL     OW47727   1.664   1.878   4.492 -0.3341 -0.0788 -0.3322
15429SOL    HW147728   1.659   1.974   4.483 -0.3353 -0.1074 -0.6618
15429SOL    HW247729   1.575   1.852   4.517  0.1764  0.2143  1.9353
15430SOL     OW47730   1.096   5.159   7.915 -0.4810  0.4247 -0.2793
15430SOL    HW147731   1.094   5.080   7.967 -1.2535 -1.0198 -2.3639
15430SOL    HW247732   1.048   5.224   7.967 -1.6346 -1.0617  0.5804
15431SOL     OW47733   0.126   5.674  12.070  0.4504  0.0750 -0.0046
15431SOL    HW147734   0.142   5.631  12.155 -0.7215 -2.5108 -0.9801
15431SOL    HW247735   0.067   5.746  12.091 -2.0027 -2.1004  1.1626
15432SOL     OW47736   6.989   2.818   2.556  0.1964 -0.3594  0.1974
15432SOL    HW147737   6.995   2.740   2.500  1.0404 -0.6405  0.6585
15432SOL    HW247738   6.900   2.816   2.591 -0.3854 -0.1052 -1.2237
15433SOL     OW47739   3.805   7.486   9.696  0.0722 -0.0290  0.9213
15433SOL    HW147740   3.747   7.545   9.744 -0.5178  1.5911 -1.5931
15433SOL    HW247741   3.869   7.457   9.761 -0.5697  2.1259  2.6315
15434SOL     OW47742   7.458   2.537   7.550 -0.2741  0.1970 -0.2849
15434SOL    HW147743   7.410   2.457   7.570  0.4848 -0.6078 -1.5705
15434SOL    HW247744   7.450   2.547   7.455  0.7794  0.9022 -0.3159
15435SOL     OW47745   6.659   5.816   4.779 -0.1718  0.2470 -0.5286
15435SOL    HW147746   6.674   5.793   4.870  1.6867  1.1350 -0.5755
15435SOL    HW247747   6.676   5.736   4.730  0.4515  0.1872 -0.2168
15436SOL     OW47748   7.237   5.961  11.116 -0.1270  0.0888 -0.4434
15436SOL    HW147749   7.225   6.005  11.032 -0.3316  0.3176 -0.2937
15436SOL    HW247750   7.327   5.982  11.141  1.5831 -3.4830 -2.6554
15437SOL     OW47751   6.554   6.353   7.287 -0.4672 -0.1735  0.0420
15437SOL    HW147752   6.485   6.363   7.221 -1.8554 -1.4122  1.2360
15437SOL    HW247753   6.527   6.278   7.339  0.9903  0.2761  1.5452
15438SOL     OW47754   4.075   3.918   8.394 -0.0373  0.1599 -0.2514
15438SOL    HW147755   4.137   3.991   8.389  1.2790 -0.9249 -0.4864
15438SOL    HW247756   4.040   3.910   8.306 -0.6353  0.8652 -0.0858
15439SOL     OW47757   4.736   0.266   0.420 -0.1975 -0.6767 -0.5552
15439SOL    HW147758   4.726   0.279   0.326 -0.8643  0.7718 -0.3145
15439SOL    HW247759   4.646   0.265   0.454  0.0616 -0.2256  0.1705
15440SOL     OW47760   4.173   7.579   1.849  0.3077  0.1187 -0.1806
15440SOL    HW147761   4.091   7.613   1.812  1.2483 -0.5481 -3.1127
15440SOL    HW247762   4.241   7.636   1.813  1.3658 -1.1682 -0.2756
15441SOL     OW47763   7.358   3.021   5.106 -0.1236  0.2786 -0.1129
15441SOL    HW147764   7.297   3.023   5.179  0.8467  1.9858  0.7036
15441SOL    HW247765   7.413   3.098   5.118  0.7510  0.0282 -2.0675
15442SOL     OW47766   3.257   2.151   7.994  0.6217  0.4049 -0.7946
15442SOL    HW147767   3.170   2.186   7.976  0.9233  0.3212 -2.5829
15442SOL    HW247768   3.242   2.057   8.007  0.4770  0.3308 -1.4522
15443SOL     OW47769   0.868   1.279   2.351  0.0832  0.2977 -0.3877
15443SOL    HW147770   0.824   1.363   2.367 -1.5124 -0.5819  0.1659
15443SOL    HW247771   0.801   1.226   2.307  1.0947 -0.6598 -0.8110
15444SOL     OW47772   2.412   4.499  10.819 -0.0232  0.1281  0.0781
15444SOL    HW147773   2.360   4.442  10.875 -0.8366 -0.2823 -1.0729
15444SOL    HW247774   2.366   4.583  10.820  0.6825  0.5240  1.0497
15445SOL     OW47775   7.816   5.959   2.040  0.4245  0.4352 -0.6693
15445SOL    HW147776   7.892   5.922   1.995  0.7957  0.8154 -0.3608
15445SOL    HW247777   7.803   6.044   1.997 -0.1215  0.1644 -1.0448
15446SOL     OW47778   4.406   4.764   8.553  0.3113  0.1074  0.3213
15446SOL    HW147779   4.389   4.849   8.592 -1.7484  0.1414 -0.5492
15446SOL    HW247780   4.346   4.704   8.597 -1.0580 -0.1205 -1.7074
15447SOL     OW47781   2.821   3.664  11.228 -0.5251  0.3575  0.4605
15447SOL    HW147782   2.804   3.758  11.237 -2.3241 -0.0002  1.4058
15447SOL    HW247783   2.822   3.648  11.134  0.9974  1.4928  0.2523
15448SOL     OW47784   1.165   1.876  10.934 -0.4013  0.4235 -0.1722
15448SOL    HW147785   1.213   1.955  10.957  0.3180  0.5660 -1.9867
15448SOL    HW247786   1.073   1.905  10.927 -0.4388  0.6487  1.0623
15449SOL     OW47787   0.506   0.928   0.353 -0.8689  0.3132 -0.3503
15449SOL    HW147788   0.513   1.013   0.396 -1.1492  1.2118 -2.0023
15449SOL    HW247789   0.412   0.918   0.334 -0.7795 -0.1383 -0.5878
15450SOL     OW47790   1.406   5.241   8.846 -0.0935 -0.4625  0.4363
15450SOL    HW147791   1.313   5.222   8.851  0.0044 -1.7422 -1.5501
15450SOL    HW247792   1.449   5.156   8.840  0.9517  0.1282 -1.4887
15451SOL     OW47793   1.275   5.726   3.306 -0.0201 -0.0186  0.2188
15451SOL    HW147794   1.215   5.654   3.286 -0.0543 -0.3478  1.4105
15451SOL    HW247795   1.222   5.788   3.356  0.8906 -0.9025  2.4004
15452SOL     OW47796   2.324   2.702   3.854 -0.2492 -0.2032  0.7894
15452SOL    HW147797   2.366   2.780   3.820  0.1844 -1.0938 -0.8121
15452SOL    HW247798   2.231   2.717   3.841 -0.3204  0.8082  2.2373
15453SOL     OW47799   1.316   4.562   0.855 -0.2941  0.6291  0.2232
15453SOL    HW147800   1.264   4.483   0.838  1.3334  0.0070 -2.4900
15453SOL    HW247801   1.324   4.605   0.770  3.2642  0.8687  0.5081
15454SOL     OW47802   4.821   6.375   1.086  0.1372  0.0549  0.3981
15454SOL    HW147803   4.849   6.406   1.000  2.4954  0.5438  1.2666
15454SOL    HW247804   4.848   6.444   1.147 -0.6233 -0.6867  1.6309
15455SOL     OW47805   7.291   6.252   0.781  0.0536 -0.3488  0.5412
15455SOL    HW147806   7.210   6.200   0.789 -0.8310  1.0930  1.3920
15455SOL    HW247807   7.292   6.281   0.690 -1.0137  0.5706  0.8026
15456SOL     OW47808   1.470   6.604   1.178  0.5754 -0.0585 -0.2451
15456SOL    HW147809   1.386   6.643   1.200  0.1085 -1.1171 -0.0995
15456SOL    HW247810   1.530   6.634   1.247 -0.0573 -0.5802  0.5343
15457SOL     OW47811   0.876   7.488  11.970  0.6283 -0.0006 -0.3807
15457SOL    HW147812   0.861   7.409  11.918 -1.4618 -0.4880  0.8379
15457SOL    HW247813   0.789   7.526  11.982  1.1399  0.6510  1.8577
15458SOL     OW47814   1.852   6.678   8.143  0.1194  0.2857  0.0991
15458SOL    HW147815   1.832   6.734   8.218  0.8673 -0.0961  0.5965
15458SOL    HW247816   1.919   6.726   8.094 -0.3111  0.4986 -0.2828
15459SOL     OW47817   2.080   6.049   0.985  0.5885  0.1632  0.0779
15459SOL    HW147818   1.992   6.085   0.974 -0.4127 -1.9964  0.3731
15459SOL    HW247819   2.110   6.032   0.895  0.0925 -0.4061  0.0122
15460SOL     OW47820   2.380   5.982   7.238 -0.0411 -0.0278 -0.9100
15460SOL    HW147821   2.420   6.037   7.172  1.0138  0.3952  0.0566
15460SOL    HW247822   2.448   5.920   7.263  0.3804  1.2423  1.3726
15461SOL     OW47823   6.619   2.738   8.266  0.0989 -0.4879  0.0727
15461SOL    HW147824   6.610   2.646   8.242 -2.2875 -0.3792  0.3553
15461SOL    HW247825   6.536   2.778   8.241  0.7616  1.4339  0.7330
15462SOL     OW47826   4.413   5.334   2.657  0.0541 -0.1684 -0.8021
15462SOL    HW147827   4.380   5.382   2.581 -0.3975 -0.5824 -0.8724
15462SOL    HW247828   4.489   5.385   2.687 -0.7848  0.9373 -0.4866
15463SOL     OW47829   6.809   5.392   6.980 -0.3081  0.4120 -0.3980
15463SOL    HW147830   6.734   5.407   6.922 -0.7718  2.0365  0.5236
15463SOL    HW247831   6.774   5.338   7.051 -0.5822  0.9877 -0.0815
15464SOL     OW47832   2.706   5.190   2.680  0.2717  0.0706  0.0821
15464SOL    HW147833   2.612   5.204   2.694  0.4218  1.3272 -0.0352
15464SOL    HW247834   2.731   5.127   2.747 -0.6365 -0.2032  0.1761
15465SOL     OW47835   0.139   1.291   0.018 -0.3002 -0.5755 -0.5700
15465SOL    HW147836   0.077   1.331   0.078 -0.1233 -2.1636  0.7521
15465SOL    HW247837   0.087   1.228  -0.033  0.0951 -1.5867  0.2307
15466SOL     OW47838   1.185   6.778  12.201  0.0486 -0.2121  0.1254
15466SOL    HW147839   1.120   6.833  12.159  1.3878  0.5133 -1.0910
15466SOL    HW247840   1.171   6.792  12.295 -2.8960 -1.7481  0.0453
15467SOL     OW47841   1.456   5.754   8.588  0.5384  0.1688  0.2202
15467SOL    HW147842   1.386   5.786   8.532  1.4992 -1.9550 -2.3634
15467SOL    HW247843   1.413   5.731   8.670 -1.8518 -1.1000 -1.2879
15468SOL     OW47844   7.266   3.740  10.187 -0.1314 -0.9094 -0.9187
15468SOL    HW147845   7.282   3.829  10.220 -3.5463 -0.0823 -1.1817
15468SOL    HW247846   7.308   3.683  10.252 -1.2698  0.8343  1.5064
15469SOL     OW47847   3.695   7.759   5.910  1.1262  0.0888 -0.2000
15469SOL    HW147848   3.637   7.734   5.839  1.6277 -0.5260 -0.4023
15469SOL    HW247849   3.783   7.744   5.876  1.4186  1.1858  0.0354
15470SOL     OW47850   3.274   1.839   6.750  0.0835 -0.1742 -0.2338
15470SOL    HW147851   3.281   1.924   6.708 -1.8471  0.5704  0.8272
15470SOL    HW247852   3.249   1.779   6.680  1.1456  0.1489 -0.9208
15471SOL     OW47853   3.425   7.004   8.957 -0.0185 -0.0395 -0.2406
15471SOL    HW147854   3.369   7.066   9.004  0.3376 -0.6516  1.0383
15471SOL    HW247855   3.505   7.053   8.939  0.4410 -0.2074  1.1630
15472SOL     OW47856   7.803   5.728   7.718 -0.2119  0.5294 -0.3148
15472SOL    HW147857   7.899   5.727   7.723 -0.1709  0.4881 -1.0504
15472SOL    HW247858   7.775   5.746   7.808  0.4783  0.2819 -0.0423
15473SOL     OW47859   1.339   0.477   3.495  0.1878  0.2134  0.0645
15473SOL    HW147860   1.365   0.523   3.574 -0.0433 -0.7866  0.7413
15473SOL    HW247861   1.378   0.528   3.423  2.6463 -0.3240  0.9332
15474SOL     OW47862   2.351   5.400   0.975 -0.5497 -0.1820  0.3276
15474SOL    HW147863   2.310   5.483   0.951 -2.5780 -0.2729  3.0279
15474SOL    HW247864   2.396   5.419   1.057 -3.5882 -2.2666  2.6850
15475SOL     OW47865   7.584   7.345   6.825  0.2040  0.5227  0.1087
15475SOL    HW147866   7.516   7.320   6.888  0.5940  1.9223  1.1124
15475SOL    HW247867   7.632   7.415   6.867  1.5860  0.3242 -1.0571
15476SOL     OW47868   6.350   1.664  11.713  0.7255  0.8242  0.5103
15476SOL    HW147869   6.391   1.750  11.726  0.7568  0.9820 -0.5789
15476SOL    HW247870   6.412   1.602  11.752  0.0370  1.3737  2.6510
15477SOL     OW47871   0.543   7.658   2.201  0.5261 -0.1191 -0.5956
15477SOL    HW147872   0.546   7.563   2.207  0.3991 -0.0559  0.8619
15477SOL    HW247873   0.457   7.677   2.163  0.8645 -0.5965 -1.6190
15478SOL     OW47874   4.655   0.515   3.301  0.9129 -0.5307 -0.0603
15478SOL    HW147875   4.749   0.505   3.318  0.6834 -1.0052  1.0506
15478SOL    HW247876   4.621   0.426   3.300  0.2658 -0.3144  0.9263
15479SOL     OW47877   5.460   7.423   0.597 -0.2044 -0.1227 -0.8934
15479SOL    HW147878   5.465   7.518   0.585 -1.3855  0.0788 -0.0382
15479SOL    HW247879   5.551   7.395   0.608  0.0779  1.1276  0.2198
15480SOL     OW47880   5.585   1.179   0.760  0.0701 -0.1720 -0.6374
15480SOL    HW147881   5.603   1.086   0.773  1.4116  0.0788 -0.5451
15480SOL    HW247882   5.606   1.194   0.668 -0.0420  0.0653 -0.6244
15481SOL     OW47883   5.927   2.949   1.037  0.1753  0.1129 -0.0203
15481SOL    HW147884   5.938   3.039   1.065 -1.0760  0.5000 -0.6699
15481SOL    HW247885   5.833   2.941   1.020  0.3529 -1.1445 -0.5367
15482SOL     OW47886   3.459   2.600   6.700  0.3696  0.3134  0.1507
15482SOL    HW147887   3.480   2.518   6.654  1.1364 -0.1896  1.3405
15482SOL    HW247888   3.530   2.659   6.676 -0.8422  1.0911 -1.7175
15483SOL     OW47889   3.852   0.256   3.387  0.4856 -0.1545 -0.7507
15483SOL    HW147890   3.786   0.210   3.335  1.1306 -1.4981 -0.4316
15483SOL    HW247891   3.890   0.188   3.443  1.7128  0.7043 -0.4990
15484SOL     OW47892   3.255   4.900  12.284  0.2103 -0.5041  0.2573
15484SOL    HW147893   3.252   4.896  12.380 -1.8174  2.2076  0.4403
15484SOL    HW247894   3.188   4.839  12.255  1.2447 -1.7878  0.4960
15485SOL     OW47895   4.842   0.453   4.199 -0.1004 -0.0978  0.5526
15485SOL    HW147896   4.937   0.467   4.205 -0.1760  0.0070  1.5447
15485SOL    HW247897   4.809   0.534   4.160  0.1835 -0.0351  0.4355
15486SOL     OW47898   4.408   3.824   8.019  0.0815 -0.1444  0.0735
15486SOL    HW147899   4.457   3.812   7.937  0.2914  0.5415  0.0919
15486SOL    HW247900   4.326   3.777   8.004  0.1846 -0.1633 -0.4718
15487SOL     OW47901   0.220   4.363   2.202 -0.3144  0.1266 -0.0786
15487SOL    HW147902   0.265   4.330   2.124  1.6094  1.2769  0.4753
15487SOL    HW247903   0.291   4.385   2.262 -1.7325  0.1030  1.6581
15488SOL     OW47904   2.162   6.891   9.084  0.1860  0.0780  0.3119
15488SOL    HW147905   2.117   6.858   9.162 -1.5245 -0.9371 -1.0462
15488SOL    HW247906   2.253   6.864   9.096 -0.3277 -1.3297  1.3035
15489SOL     OW47907   5.837   6.838   7.516  0.2103  0.7552 -0.6730
15489SOL    HW147908   5.893   6.835   7.593  1.6129 -1.8154 -1.6955
15489SOL    HW247909   5.859   6.920   7.473  0.8117  1.2920  0.6163
15490SOL     OW47910   5.061   4.711  10.177 -0.4802  0.0811  0.0267
15490SOL    HW147911   5.042   4.621  10.205  1.8014  0.1411  2.0955
15490SOL    HW247912   5.152   4.725  10.203 -0.2476  2.4610 -1.7766
15491SOL     OW47913   7.219   2.813   6.873 -0.4750 -0.0771  0.3405
15491SOL    HW147914   7.187   2.785   6.788  1.2684  0.8122 -0.6637
15491SOL    HW247915   7.187   2.903   6.882  1.2399  0.6656 -0.4809
15492SOL     OW47916   5.326   3.157   8.621 -0.7849 -0.4746  0.5824
15492SOL    HW147917   5.384   3.095   8.576  0.8222 -0.3290  2.3397
15492SOL    HW247918   5.343   3.241   8.579 -0.8547 -0.7012  0.0915
15493SOL     OW47919   1.472   3.927   5.203 -0.5536  0.1057 -0.0959
15493SOL    HW147920   1.388   3.958   5.238 -2.3314 -0.7906 -3.1363
15493SOL    HW247921   1.458   3.833   5.189  0.7474  0.0338 -1.1515
15494SOL     OW47922   0.398   1.754   4.527 -0.2149 -0.6798  0.0025
15494SOL    HW147923   0.400   1.682   4.590  0.8043 -1.6827 -1.1083
15494SOL    HW247924   0.478   1.804   4.545 -1.0486  0.3635  0.9389
15495SOL     OW47925   2.247   2.046   7.391  0.0828 -0.3434 -0.1289
15495SOL    HW147926   2.171   2.102   7.408 -0.2420 -0.0936 -2.1413
15495SOL    HW247927   2.273   2.014   7.477 -1.5770  0.5129  0.7409
15496SOL     OW47928   4.208   1.242   0.938  0.5976 -0.6051 -0.0269
15496SOL    HW147929   4.159   1.169   0.976  0.4409 -0.8645 -0.7151
15496SOL    HW247930   4.266   1.202   0.875  0.9124 -0.1852 -0.0085
15497SOL     OW47931   1.604   6.822   4.076  0.1347 -0.1370  0.5463
15497SOL    HW147932   1.659   6.887   4.119 -1.3904  0.3510  1.8832
15497SOL    HW247933   1.596   6.853   3.986 -0.6524  1.6302  1.1830
15498SOL     OW47934   5.304   7.732   6.768  0.4837  0.0848  0.2516
15498SOL    HW147935   5.260   7.796   6.711  0.9838 -0.4782 -0.8019
15498SOL    HW247936   5.251   7.730   6.847 -0.1077  1.0665 -0.0997
15499SOL     OW47937   6.040   6.898   4.129  1.0679 -0.4557  0.8768
15499SOL    HW147938   6.105   6.948   4.080 -0.4129  0.4432 -0.2563
15499SOL    HW247939   6.026   6.818   4.078 -0.9878  0.7954 -0.6708
15500SOL     OW47940   6.584   2.567   4.410 -0.2464  0.2928 -0.1599
15500SOL    HW147941   6.541   2.544   4.327  1.5311 -1.6394 -0.6295
15500SOL    HW247942   6.658   2.507   4.416  0.3838  1.2011  2.2761
15501SOL     OW47943   3.824   5.843   7.727  0.4653 -0.3923 -0.3050
15501SOL    HW147944   3.876   5.823   7.650  0.1331 -0.7114 -0.4503
15501SOL    HW247945   3.744   5.883   7.692 -0.1893 -1.5852 -0.2089
15502SOL     OW47946   0.821   3.087   8.714  0.5693  0.1615  0.5514
15502SOL    HW147947   0.748   3.063   8.658  0.5502  2.8673 -0.7042
15502SOL    HW247948   0.781   3.116   8.796  0.3410  0.4265  0.3422
15503SOL     OW47949   0.571   6.126   2.074  0.5160 -0.0158  0.3948
15503SOL    HW147950   0.492   6.151   2.025 -0.2964 -0.3406  1.5061
15503SOL    HW247951   0.550   6.040   2.110  1.4402 -0.1654  0.5985
15504SOL     OW47952   1.025   4.620  10.682  0.5124 -0.0762  0.1286
15504SOL    HW147953   0.952   4.667  10.724  0.4457 -0.4169  0.4006
15504SOL    HW247954   1.081   4.592  10.755  0.2609 -0.8946  0.0208
15505SOL     OW47955   2.453   4.040  10.094 -0.1717  0.1806  0.2389
15505SOL    HW147956   2.369   4.086  10.086 -0.9460 -1.2437 -0.0868
15505SOL    HW247957   2.479   4.023  10.004 -0.0525 -0.2972  0.3613
15506SOL     OW47958   4.825   6.056   3.562 -0.4422 -0.8116  0.1728
15506SOL    HW147959   4.839   6.115   3.489  1.0431  0.7401  1.6156
15506SOL    HW247960   4.730   6.060   3.578 -0.7025 -0.7288 -1.2568
15507SOL     OW47961   1.275   7.479   4.856 -0.3015  0.0573 -0.1828
15507SOL    HW147962   1.246   7.455   4.768 -0.6162  0.7918 -0.2885
15507SOL    HW247963   1.364   7.511   4.844 -0.5695  0.7617 -0.3392
15508SOL     OW47964   4.672   1.775   3.208  0.1326 -0.4674  0.7047
15508SOL    HW147965   4.686   1.686   3.178  0.7056 -0.3528  0.6152
15508SOL    HW247966   4.627   1.818   3.135 -3.4966 -1.5855  2.0628
15509SOL     OW47967   2.779   6.073   4.104 -0.0858  0.1837 -0.7671
15509SOL    HW147968   2.832   6.012   4.155 -0.1066  0.4869 -0.3807
15509SOL    HW247969   2.693   6.031   4.096 -0.1643  0.2574 -0.3173
15510SOL     OW47970   3.637   0.995   5.845 -0.0128 -0.0110  0.9836
15510SOL    HW147971   3.690   0.954   5.777 -1.2080  0.9498 -0.6045
15510SOL    HW247972   3.683   1.076   5.867 -1.1421  1.2773 -1.0387
15511SOL     OW47973   0.518   0.032   0.021 -0.1136 -0.6079 -0.4053
15511SOL    HW147974   0.488   0.010  -0.068 -0.3891  0.2358 -0.5348
15511SOL    HW247975   0.612   0.044   0.012 -0.2104 -0.0111 -0.7073
15512SOL     OW47976   1.321   6.172   0.617  0.2543 -0.0466 -0.4231
15512SOL    HW147977   1.240   6.185   0.667  0.0119 -0.4076 -0.7140
15512SOL    HW247978   1.293   6.174   0.526  0.6287  0.1660 -0.5354
15513SOL     OW47979   0.987   2.823   1.945 -0.0867 -0.0015  0.9088
15513SOL    HW147980   1.055   2.872   1.991 -0.0099 -0.3053  1.1208
15513SOL    HW247981   0.947   2.768   2.012 -0.4525  0.0769  0.7567
15514SOL     OW47982   2.195   7.131   8.782 -0.4594  0.0263 -0.0529
15514SOL    HW147983   2.240   7.205   8.741  0.6520 -0.2682  0.5957
15514SOL    HW247984   2.146   7.091   8.711  0.0687  0.5413 -0.7213
15515SOL     OW47985   4.429   6.986  10.105 -0.3772  0.2629 -0.0826
15515SOL    HW147986   4.490   6.943  10.045  1.7600  1.6418  0.9508
15515SOL    HW247987   4.352   7.006  10.051  0.6093 -0.3692 -1.8129
15516SOL     OW47988   3.195   7.801   7.954  0.3266  0.0601  0.8611
15516SOL    HW147989   3.190   7.897   7.954 -0.0757  0.1213 -1.9243
15516SOL    HW247990   3.287   7.782   7.936 -0.1494  0.1107 -2.2716
15517SOL     OW47991   6.121   4.288   8.408 -0.7593 -0.3006 -0.1354
15517SOL    HW147992   6.177   4.349   8.456 -0.1391 -1.3437  0.5220
15517SOL    HW247993   6.173   4.262   8.332 -0.6921 -0.5995  0.0090
15518SOL     OW47994   6.004   7.323   3.624  0.0996 -0.6461 -0.2118
15518SOL    HW147995   6.016   7.231   3.599  0.9424 -0.4554 -0.5624
15518SOL    HW247996   5.943   7.358   3.558  0.6072 -0.6948 -0.7168
15519SOL     OW47997   0.722   0.759   0.477 -0.3220  0.1437  0.3123
15519SOL    HW147998   0.719   0.669   0.444 -0.1280 -0.0809  0.8940
15519SOL    HW247999   0.642   0.799   0.444 -1.1688 -0.6920  1.2837
15520SOL     OW48000   4.279   6.260   4.320 -0.9154  0.2083  0.7563
15520SOL    HW148001   4.184   6.262   4.331 -1.1904  0.4641 -1.2442
15520SOL    HW248002   4.310   6.337   4.366 -2.0359  1.8157 -1.0301
15521SOL     OW48003   1.580   6.887   8.458  0.3257  0.0626 -0.4364
15521SOL    HW148004   1.621   6.865   8.542  0.6817 -1.4466 -0.9716
15521SOL    HW248005   1.496   6.926   8.483 -0.0481 -1.3237  0.6377
15522SOL     OW48006   0.936   3.010   3.415  0.5177 -0.2375  0.5322
15522SOL    HW148007   1.013   2.982   3.463  0.7476 -1.6347 -0.5868
15522SOL    HW248008   0.876   2.935   3.418  0.4094 -0.2640 -1.0339
15523SOL     OW48009   3.028   6.491   5.643 -0.1430  0.6110  0.4143
15523SOL    HW148010   3.109   6.444   5.663  0.6355  1.7721  0.1072
15523SOL    HW248011   2.986   6.438   5.575 -0.4312 -0.8185  1.6597
15524SOL     OW48012   2.243   6.673   1.954 -0.3063 -0.0018 -0.1426
15524SOL    HW148013   2.303   6.717   2.014 -1.1571  2.2315 -0.7951
15524SOL    HW248014   2.158   6.678   1.997 -0.2664 -2.1720  0.2919
15525SOL     OW48015   6.607   6.673   5.409 -0.1744 -0.0536  0.1016
15525SOL    HW148016   6.622   6.683   5.316 -2.2255  2.0004 -0.1069
15525SOL    HW248017   6.516   6.642   5.415 -1.4019  3.2779  1.3472
15526SOL     OW48018   7.136   3.575   4.344  0.9798  0.0546  0.3195
15526SOL    HW148019   7.118   3.669   4.336  0.7130 -0.1705 -2.6352
15526SOL    HW248020   7.201   3.557   4.277 -0.7800 -2.2782 -0.8877
15527SOL     OW48021   1.099   1.831   1.749  0.2727  0.3048  0.4087
15527SOL    HW148022   1.049   1.775   1.809 -0.0606 -0.3091 -0.4144
15527SOL    HW248023   1.188   1.830   1.783  0.9591 -3.0483 -1.0816
15528SOL     OW48024   6.048   7.137   9.776 -0.3749 -0.0646 -0.1763
15528SOL    HW148025   6.115   7.118   9.710 -2.4405 -0.4847 -2.2705
15528SOL    HW248026   6.064   7.073   9.845  1.0269 -0.5290 -0.8816
15529SOL     OW48027   7.617   1.125  11.370  0.3140  0.3346  0.6859
15529SOL    HW148028   7.700   1.102  11.412  0.0489 -2.3116 -0.0221
15529SOL    HW248029   7.570   1.178  11.435  1.5203 -0.2927  2.1157
15530SOL     OW48030   6.933   4.664   5.577  0.1424  0.1962  0.3840
15530SOL    HW148031   6.913   4.754   5.550  2.1710  0.1882 -1.3617
15530SOL    HW248032   7.028   4.664   5.591  0.0283 -1.4394  1.4577
15531SOL     OW48033   3.912   0.985   8.464 -0.3820 -0.3986  0.5406
15531SOL    HW148034   3.833   0.979   8.410 -0.5715  0.3636  0.7264
15531SOL    HW248035   3.980   0.945   8.411 -0.6240  0.0987 -0.1566
15532SOL     OW48036   2.417   3.411  11.333 -0.3458  0.1130 -0.1190
15532SOL    HW148037   2.346   3.430  11.272 -0.6304  1.9681  0.7055
15532SOL    HW248038   2.418   3.486  11.392 -0.6252 -1.9380  2.7030
15533SOL     OW48039   0.334   2.063   5.600  0.0991 -0.2782  0.1418
15533SOL    HW148040   0.388   2.125   5.649 -1.1161 -0.1159  1.3021
15533SOL    HW248041   0.378   2.057   5.514  2.0648 -0.3207  1.0924
15534SOL     OW48042   3.386   4.505   0.274 -0.0728  0.8028  0.3034
15534SOL    HW148043   3.433   4.588   0.268  1.1153  0.2174  0.9952
15534SOL    HW248044   3.418   4.454   0.200  1.2698  0.0136  1.3574
15535SOL     OW48045   2.272   3.208   3.665 -0.0922 -0.9731 -0.3899
15535SOL    HW148046   2.331   3.245   3.601  0.2186  0.9698  0.9243
15535SOL    HW248047   2.186   3.211   3.623  0.3348 -1.3012 -1.3076
15536SOL     OW48048   4.927   7.278   0.309  0.0705  0.0355 -0.9559
15536SOL    HW148049   5.011   7.310   0.275  1.1219 -1.9121 -0.3047
15536SOL    HW248050   4.940   7.271   0.403 -0.2487 -1.8419 -1.0185
15537SOL     OW48051   6.537   7.733   9.532  0.0388  0.4887  0.0903
15537SOL    HW148052   6.508   7.642   9.524 -2.4135  1.2497 -0.6679
15537SOL    HW248053   6.629   7.727   9.556  0.2358 -2.1843 -0.9879
15538SOL     OW48054   2.029   4.794   5.089  0.2842 -0.2252  0.4985
15538SOL    HW148055   2.105   4.757   5.135 -0.4430 -1.0783  1.0406
15538SOL    HW248056   2.043   4.771   4.997 -0.0017 -1.6166  0.7846
15539SOL     OW48057   1.941   5.449   0.161  0.4488  0.1061 -0.1714
15539SOL    HW148058   1.975   5.361   0.139 -1.1206 -0.6568  0.3356
15539SOL    HW248059   1.871   5.432   0.223 -0.8422  1.6292 -1.1562
15540SOL     OW48060   6.275   4.117  11.197  0.3553  0.5850 -0.0119
15540SOL    HW148061   6.308   4.099  11.109  2.3594  0.5530  0.7006
15540SOL    HW248062   6.274   4.032  11.241  0.3563  0.7466  0.3083
15541SOL     OW48063   2.884   7.720   3.307 -0.1970 -0.2594 -0.2301
15541SOL    HW148064   2.896   7.790   3.371 -2.4670 -0.1172  0.0936
15541SOL    HW248065   2.808   7.747   3.255  0.4070 -1.3156 -1.7313
15542SOL     OW48066   7.027   5.174   2.173 -0.3796 -0.2216  0.5024
15542SOL    HW148067   6.967   5.123   2.119  0.5654  0.7777 -1.6152
15542SOL    HW248068   7.066   5.111   2.233 -1.3141 -1.4319 -0.1359
15543SOL     OW48069   4.706   3.101   2.297 -0.0993  1.0032 -0.1989
15543SOL    HW148070   4.637   3.053   2.250 -1.1270  1.5673  0.6988
15543SOL    HW248071   4.670   3.113   2.385  0.4558  2.7570 -0.1865
15544SOL     OW48072   4.669   2.703   5.985  0.0263 -0.0721  0.5596
15544SOL    HW148073   4.703   2.783   6.026  0.8619  0.6530 -1.4302
15544SOL    HW248074   4.585   2.730   5.948  1.5911  0.8462 -2.6962
15545SOL     OW48075   4.945   4.769  10.720 -0.1469 -0.3838  0.3457
15545SOL    HW148076   4.963   4.721  10.801  1.5393 -1.3893 -0.5730
15545SOL    HW248077   4.890   4.709  10.669 -0.3312 -0.1857  0.3098
15546SOL     OW48078   0.364   6.954   9.247 -0.4471 -0.1157 -0.1536
15546SOL    HW148079   0.368   6.961   9.152  1.2814  0.9880 -0.0554
15546SOL    HW248080   0.443   7.000   9.277 -1.3415  0.2130  1.8384
15547SOL     OW48081   6.521   0.970  11.912  0.4578 -0.1387 -0.0039
15547SOL    HW148082   6.567   0.996  11.832 -1.2749  1.9097 -0.4095
15547SOL    HW248083   6.518   1.049  11.965 -0.7131 -0.7850  0.9400
15548SOL     OW48084   7.606   0.354   1.852  0.1859  0.3207 -0.2298
15548SOL    HW148085   7.556   0.436   1.846 -0.4636 -0.0792 -0.4065
15548SOL    HW248086   7.674   0.372   1.916 -0.0814  0.9392 -0.1110
15549SOL     OW48087   4.731   2.203   9.195 -0.5370  0.0000  0.0530
15549SOL    HW148088   4.692   2.263   9.259  0.7976 -0.4943  1.3938
15549SOL    HW248089   4.758   2.259   9.122 -0.3567  0.8672  0.7730
15550SOL     OW48090   3.823   1.087   3.036  0.5247 -0.0913 -0.2640
15550SOL    HW148091   3.799   1.048   2.952  0.3846 -1.1939  0.2685
15550SOL    HW248092   3.908   1.047   3.057  0.5951  0.2418  0.0818
15551SOL     OW48093   7.273   4.532   1.379  0.0626  0.1754 -0.6167
15551SOL    HW148094   7.249   4.463   1.442 -1.1788 -1.6937 -2.9805
15551SOL    HW248095   7.337   4.490   1.321 -0.5384  1.0857 -1.9838
15552SOL     OW48096   0.270   3.428   9.294  0.1139 -0.1472 -0.1289
15552SOL    HW148097   0.256   3.335   9.312 -0.4523  0.0937  0.7354
15552SOL    HW248098   0.232   3.441   9.206 -0.8668 -0.4983  0.2231
15553SOL     OW48099   4.381   6.087   7.206  0.1453  0.2535 -1.1261
15553SOL    HW148100   4.293   6.122   7.190 -0.4136 -0.6604 -0.2253
15553SOL    HW248101   4.418   6.143   7.273  0.7006  1.3085 -2.2818
15554SOL     OW48102   4.340   3.584  10.150  0.0763  0.0835 -0.5864
15554SOL    HW148103   4.422   3.594  10.102  0.4357  0.6746  0.1337
15554SOL    HW248104   4.336   3.660  10.207  0.1547 -1.0884  1.0510
15555SOL     OW48105   1.004   3.230  11.956  0.0798  0.3900  0.2445
15555SOL    HW148106   1.051   3.313  11.946  0.0176  0.2413 -1.8042
15555SOL    HW248107   1.040   3.174  11.887 -0.6173 -0.9455  0.9227
15556SOL     OW48108   4.569   1.877   7.681  0.4071  0.4540 -0.1399
15556SOL    HW148109   4.502   1.942   7.705  0.6777  0.6917 -0.0275
15556SOL    HW248110   4.647   1.905   7.729  0.5483  0.0946 -0.1630
15557SOL     OW48111   3.016   6.302  11.807 -0.0259 -0.2414 -0.0083
15557SOL    HW148112   3.010   6.207  11.808 -0.7735 -0.1996  0.1816
15557SOL    HW248113   2.979   6.328  11.723  1.0303 -0.1576 -0.4669
15558SOL     OW48114   1.469   3.819   4.636  0.6741 -0.4295  0.9827
15558SOL    HW148115   1.480   3.814   4.731 -1.6923 -1.2822  1.2740
15558SOL    HW248116   1.517   3.897   4.610  1.1905 -0.0660  2.8992
15559SOL     OW48117   4.410   6.691   2.426 -0.2107  0.2059  0.2703
15559SOL    HW148118   4.415   6.609   2.375  0.6909 -0.7407  1.7971
15559SOL    HW248119   4.368   6.753   2.367 -2.2141 -1.7189 -0.4739
15560SOL     OW48120   4.983   4.054   3.551 -0.6516 -0.5921 -0.0914
15560SOL    HW148121   5.046   4.101   3.497 -0.2672 -1.9706 -0.8796
15560SOL    HW248122   5.035   4.021   3.625 -0.6610 -0.8478 -0.1990
15561SOL     OW48123   2.039   6.841   8.014  0.5729 -0.2547 -0.3208
15561SOL    HW148124   2.096   6.766   8.000  1.5433  0.6226 -1.3968
15561SOL    HW248125   2.097   6.910   8.046 -0.2540  0.1071  0.4497
15562SOL     OW48126   1.641   7.583   1.035  0.1473  0.2105  0.3319
15562SOL    HW148127   1.638   7.603   1.129  1.2118 -0.8087  0.6112
15562SOL    HW248128   1.660   7.489   1.032 -1.5760 -0.1421 -0.9075
15563SOL     OW48129   3.812   6.613   9.219 -0.4666  0.1321 -1.1134
15563SOL    HW148130   3.881   6.549   9.201 -1.0269 -0.1489 -2.4721
15563SOL    HW248131   3.736   6.579   9.170 -2.2011 -0.6404  1.8764
15564SOL     OW48132   4.338   5.546   9.672  0.0657 -0.4666 -0.3590
15564SOL    HW148133   4.346   5.491   9.594 -1.0467  0.0471 -0.8706
15564SOL    HW248134   4.375   5.494   9.743 -0.3671 -1.6043 -0.9476
15565SOL     OW48135   2.669   7.909   2.057  0.0921  0.2933  0.4645
15565SOL    HW148136   2.733   7.898   1.987  0.1148 -1.5988  0.7274
15565SOL    HW248137   2.710   7.970   2.118  1.1434  0.0231  0.0485
15566SOL     OW48138   0.447   6.150   4.389 -0.3685  0.0671 -0.4109
15566SOL    HW148139   0.368   6.198   4.366  0.0739  0.5863 -0.8664
15566SOL    HW248140   0.515   6.186   4.332 -0.0968 -1.3264 -1.0049
15567SOL     OW48141   1.863   1.552   8.392  0.1663  0.3079  0.0142
15567SOL    HW148142   1.806   1.542   8.315  0.7434  0.5180 -0.4461
15567SOL    HW248143   1.940   1.499   8.372  1.0619  1.6701 -0.2877
15568SOL     OW48144   1.962   4.321  10.989  0.5820 -0.1735 -0.4219
15568SOL    HW148145   1.956   4.340  10.895 -0.7148  0.7039 -0.1974
15568SOL    HW248146   1.954   4.406  11.031  2.2765 -0.4174  0.4945
15569SOL     OW48147   7.214   7.640   4.009 -0.2366  0.4225  0.3660
15569SOL    HW148148   7.175   7.691   3.939 -0.0075 -0.8729 -0.7362
15569SOL    HW248149   7.254   7.705   4.067 -0.4414  1.5152 -0.6847
15570SOL     OW48150   3.566   6.452   4.420  0.4719  0.5649  0.2972
15570SOL    HW148151   3.575   6.380   4.358 -1.0919  0.6652 -0.0832
15570SOL    HW248152   3.474   6.479   4.413  0.7976  1.9986  1.0934
15571SOL     OW48153   1.310   5.865  10.330  0.2911 -0.0816  0.4264
15571SOL    HW148154   1.284   5.866  10.238  1.9075  1.5564 -0.0829
15571SOL    HW248155   1.367   5.789  10.338  0.7913  0.2225 -0.1542
15572SOL     OW48156   2.765   6.848   0.950 -0.2006  0.2075 -0.6936
15572SOL    HW148157   2.711   6.894   1.014  1.2374  0.3339  0.5018
15572SOL    HW248158   2.751   6.895   0.868 -2.0745  0.0646 -0.4968
15573SOL     OW48159   7.399   6.129   2.454  0.3440  0.1112 -0.2261
15573SOL    HW148160   7.475   6.151   2.509  1.5600 -2.1730 -0.8749
15573SOL    HW248161   7.437   6.100   2.371 -1.2371 -1.1521 -0.5482
15574SOL     OW48162   5.473   3.272   7.565  0.1464  0.0501 -0.0301
15574SOL    HW148163   5.398   3.276   7.625 -0.4538  2.2004 -0.8197
15574SOL    HW248164   5.519   3.192   7.590 -2.0121 -0.9889  0.9504
15575SOL     OW48165   4.407   4.382   1.503 -0.3327  0.0420  0.2812
15575SOL    HW148166   4.471   4.348   1.441  0.0445  0.6452  0.3304
15575SOL    HW248167   4.323   4.349   1.471 -0.0885 -0.0311 -0.2916
15576SOL     OW48168   1.048   6.616   2.190 -0.2310  0.1672  0.2731
15576SOL    HW148169   1.073   6.633   2.100 -2.4405 -0.8215 -0.5963
15576SOL    HW248170   1.063   6.523   2.203  0.1758  0.3194  0.9851
15577SOL     OW48171   4.531   5.976  10.734 -0.0307  0.2304 -0.5198
15577SOL    HW148172   4.495   5.921  10.804 -0.9510  1.3573 -0.0736
15577SOL    HW248173   4.478   5.955  10.657 -0.7230  0.8455 -0.2218
15578SOL     OW48174   2.908   1.518   0.056 -0.2285 -0.2578  0.4492
15578SOL    HW148175   2.962   1.441   0.076 -0.7481  0.1027  3.8461
15578SOL    HW248176   2.945   1.588   0.109 -1.9483  0.8811  0.2312
15579SOL     OW48177   6.056   1.246  10.828 -0.3983 -0.6127  0.1478
15579SOL    HW148178   6.064   1.304  10.752 -1.6202  0.5327  0.8596
15579SOL    HW248179   6.045   1.305  10.902  0.0265 -1.7336  1.1361
15580SOL     OW48180   4.935   3.869   4.259  0.8239 -0.2602  0.1743
15580SOL    HW148181   5.026   3.877   4.290  1.0307 -1.1096 -0.1814
15580SOL    HW248182   4.888   3.833   4.334  0.8592 -0.1898  0.2307
15581SOL     OW48183   6.518   7.492   6.688  0.4143 -0.0183  0.4496
15581SOL    HW148184   6.514   7.582   6.718 -0.8030 -0.1962  0.8705
15581SOL    HW248185   6.608   7.481   6.658  0.6800  1.2187  0.7298
15582SOL     OW48186   7.715   7.388  12.361  0.2520  0.3303  0.2094
15582SOL    HW148187   7.658   7.325  12.316  0.4675 -0.4354  0.9747
15582SOL    HW248188   7.655   7.455  12.393  0.0126  0.5154 -0.5925
15583SOL     OW48189   1.859   1.630   3.936 -0.3479 -0.0739 -0.5264
15583SOL    HW148190   1.812   1.637   4.019 -1.5265  2.3531 -1.2885
15583SOL    HW248191   1.949   1.652   3.957 -0.7510  1.0926  0.0460
15584SOL     OW48192   4.177   7.080   5.586 -0.1299  0.2145  0.0490
15584SOL    HW148193   4.095   7.100   5.632 -2.2832 -3.3299 -1.8425
15584SOL    HW248194   4.150   7.043   5.502  3.3863 -1.5868 -0.5004
15585SOL     OW48195   0.899   1.925   9.725 -0.1414  0.0540 -0.2002
15585SOL    HW148196   0.848   1.845   9.711  0.2532 -0.5359  1.4512
15585SOL    HW248197   0.983   1.907   9.682 -0.7716  0.4544 -1.6628
15586SOL     OW48198   6.160   2.226  11.506 -0.0356  0.3829  0.4047
15586SOL    HW148199   6.120   2.301  11.463  2.4347  2.1920  0.9789
15586SOL    HW248200   6.170   2.160  11.437  0.0459  1.5952 -0.7855
15587SOL     OW48201   4.415   4.080  10.157  0.2666 -0.2004 -0.0858
15587SOL    HW148202   4.487   4.081  10.221  0.6621 -1.1311 -0.5012
15587SOL    HW248203   4.406   4.172  10.131  0.7198  0.0590  0.6109
15588SOL     OW48204   5.273   3.115   5.471 -0.0794 -0.1842 -0.5038
15588SOL    HW148205   5.203   3.061   5.434  0.7923 -1.5912 -0.1693
15588SOL    HW248206   5.316   3.154   5.395 -0.8297  0.1863 -0.7451
15589SOL     OW48207   1.431   3.396   7.183  0.1502 -0.2570  0.3442
15589SOL    HW148208   1.371   3.322   7.182 -0.7266  0.4366  0.1849
15589SOL    HW248209   1.402   3.451   7.110  0.1941  0.7015  1.0270
15590SOL     OW48210   6.928   3.013   8.431 -0.1410 -0.6898 -0.2163
15590SOL    HW148211   6.980   2.972   8.361  1.6712  0.8325  0.1465
15590SOL    HW248212   6.982   3.002   8.510  0.3721  2.1409 -0.0822
15591SOL     OW48213   5.669   5.890   4.115 -0.0569 -0.0816 -0.0945
15591SOL    HW148214   5.622   5.899   4.199 -0.5785 -1.9453 -0.1327
15591SOL    HW248215   5.759   5.869   4.140 -0.0338  0.1369  0.0031
15592SOL     OW48216   2.773   2.711   1.361 -0.3250  0.6492  0.4401
15592SOL    HW148217   2.779   2.802   1.390  0.0785  0.2889  1.5338
15592SOL    HW248218   2.711   2.670   1.422  0.5684 -0.1397  0.8475
15593SOL     OW48219   0.360   0.044   6.757 -0.2911  0.1219  0.0734
15593SOL    HW148220   0.413  -0.035   6.758 -1.4890 -0.6983  0.7742
15593SOL    HW248221   0.407   0.105   6.815 -0.2852 -0.7172  0.9739
15594SOL     OW48222   5.203   6.602   8.476  0.3541  0.2854 -0.0242
15594SOL    HW148223   5.262   6.529   8.497 -0.0684 -0.5429 -1.6011
15594SOL    HW248224   5.156   6.574   8.398 -4.0807 -0.2433  2.4840
15595SOL     OW48225   5.146   2.367   4.460 -0.1337  0.0868 -0.1723
15595SOL    HW148226   5.226   2.316   4.469 -0.2840 -0.0922  0.1543
15595SOL    HW248227   5.171   2.443   4.407  0.3717  0.2965  0.3619
15596SOL     OW48228   4.805   6.703   9.077  0.1075 -0.2749 -0.0759
15596SOL    HW148229   4.898   6.693   9.093  0.3139  0.8185 -0.5424
15596SOL    HW248230   4.767   6.723   9.162  0.0989 -1.9044  0.3422
15597SOL     OW48231   2.899   2.474  10.121 -0.8598  0.6567 -0.5524
15597SOL    HW148232   2.836   2.545  10.131 -0.2918  1.1690 -0.5005
15597SOL    HW248233   2.983   2.514  10.147 -1.1244 -1.2079  4.1072
15598SOL     OW48234   0.221   0.172   3.312 -0.0342  0.2097  0.4683
15598SOL    HW148235   0.313   0.182   3.286 -0.7299  0.5016 -2.1297
15598SOL    HW248236   0.225   0.126   3.396  2.4592 -0.5890  0.0065
15599SOL     OW48237   1.743   3.454   8.101 -0.4263  0.3037  0.1071
15599SOL    HW148238   1.728   3.367   8.065 -2.0377  1.2271 -1.6346
15599SOL    HW248239   1.789   3.438   8.184  2.2482 -2.0272 -1.6364
15600SOL     OW48240   5.820   3.679  11.702  0.3216 -0.5509 -0.1429
15600SOL    HW148241   5.911   3.677  11.675  0.1570 -0.5425 -0.7062
15600SOL    HW248242   5.823   3.704  11.794  0.7803  1.4814 -0.6759
15601SOL     OW48243   5.194   3.841   0.934 -0.0146  0.2023  0.3291
15601SOL    HW148244   5.282   3.866   0.905  0.1452  0.6926  1.2097
15601SOL    HW248245   5.210   3.781   1.008 -0.4216  0.2249  0.4366
15602SOL     OW48246   6.641   4.143   9.037 -0.0954 -0.3607 -0.0166
15602SOL    HW148247   6.614   4.081   8.968 -1.9928 -1.6210  1.7433
15602SOL    HW248248   6.687   4.089   9.101 -1.2450  0.1159  1.2617
15603SOL     OW48249   1.619   2.104   7.201  0.1425 -0.2966  0.0597
15603SOL    HW148250   1.606   2.068   7.289  1.2384 -0.3086  0.2289
15603SOL    HW248251   1.707   2.075   7.175 -0.2312 -0.4461 -1.1188
15604SOL     OW48252   0.485   3.770   1.504  0.4927 -0.8091  0.2763
15604SOL    HW148253   0.404   3.758   1.454  0.4034 -1.4028  0.5468
15604SOL    HW248254   0.457   3.763   1.595  0.4781  1.3507  0.4734
15605SOL     OW48255   0.521   3.919  10.330 -0.1305 -0.2378  0.0310
15605SOL    HW148256   0.529   4.007  10.294 -1.1193 -0.2110 -0.1559
15605SOL    HW248257   0.611   3.888  10.337  0.1728  0.3246 -1.0575
15606SOL     OW48258   3.466   5.513  10.495 -0.7970 -0.0312  0.0591
15606SOL    HW148259   3.375   5.539  10.481 -0.2850  1.5460 -0.5256
15606SOL    HW248260   3.515   5.595  10.494  0.4677 -0.6870  1.8874
15607SOL     OW48261   7.537   0.122   6.224 -0.1912  0.7477  0.0819
15607SOL    HW148262   7.585   0.041   6.244 -2.8457 -0.9077  0.2099
15607SOL    HW248263   7.556   0.180   6.298  0.8641 -0.1544  0.5518
15608SOL     OW48264   4.628   0.028   0.262  0.3806  0.2195  0.1237
15608SOL    HW148265   4.584   0.008   0.345  2.4096 -0.0522  1.1884
15608SOL    HW248266   4.608   0.120   0.246  0.7133  0.5310  1.3990
15609SOL     OW48267   1.271   5.047  11.021 -0.0062  0.3676  1.1248
15609SOL    HW148268   1.324   5.034  10.942  0.0203 -0.6708  1.3012
15609SOL    HW248269   1.274   4.962  11.066 -2.4868 -0.0013  0.7186
15610SOL     OW48270   3.525   1.500  11.328 -0.1374 -1.3979 -0.0543
15610SOL    HW148271   3.612   1.460  11.333  0.5321  0.1560  1.5493
15610SOL    HW248272   3.491   1.493  11.417 -0.8209 -0.1897 -0.2121
15611SOL     OW48273   4.396   6.917   1.869  0.5281  0.0840  0.3669
15611SOL    HW148274   4.334   6.930   1.797  0.4810 -0.4935  0.2979
15611SOL    HW248275   4.464   6.861   1.832 -0.0866 -1.1838  1.0977
15612SOL     OW48276   5.021   0.106   8.942  0.5838  0.4475  0.4456
15612SOL    HW148277   4.955   0.142   9.001  0.1193  1.5593 -0.7022
15612SOL    HW248278   5.104   0.118   8.988  0.1450  0.4437  1.2550
15613SOL     OW48279   7.148   2.575   4.737 -0.5585  0.0295 -0.0843
15613SOL    HW148280   7.111   2.578   4.826  0.0245 -0.5236  0.1860
15613SOL    HW248281   7.238   2.604   4.749 -0.1479 -1.1406 -0.3146
15614SOL     OW48282   4.500   4.980  11.525  0.0745  0.8081 -0.5299
15614SOL    HW148283   4.413   4.942  11.507  0.3227 -0.5855  0.9839
15614SOL    HW248284   4.538   4.922  11.590  1.2157  2.7385  0.6139
15615SOL     OW48285   6.180   3.399   6.976 -0.5881 -0.5121  0.7681
15615SOL    HW148286   6.157   3.308   6.993 -2.6663  0.0602  1.3549
15615SOL    HW248287   6.189   3.438   7.063  0.8721 -0.2601  0.5299
15616SOL     OW48288   5.317   5.749   1.036  0.7426 -0.2999 -0.0368
15616SOL    HW148289   5.369   5.814   1.084 -0.8633  0.1781  1.1308
15616SOL    HW248290   5.227   5.776   1.049  0.1342 -1.6390 -1.2422
15617SOL     OW48291   0.073   5.277  11.540 -0.0042  0.0891 -0.2466
15617SOL    HW148292   0.024   5.200  11.568 -1.0920  0.8447  0.0135
15617SOL    HW248293   0.159   5.267  11.580 -0.6237 -0.2513  1.0585
15618SOL     OW48294   4.574   3.632   9.968  0.2931 -0.3437  0.0642
15618SOL    HW148295   4.570   3.702   9.903 -0.3484 -0.4978 -0.0705
15618SOL    HW248296   4.581   3.551   9.916 -1.0280 -0.5338  0.1361
15619SOL     OW48297   2.147   3.716   5.443 -0.0021 -0.0192 -0.1342
15619SOL    HW148298   2.164   3.644   5.504 -1.9614 -0.1772  0.2832
15619SOL    HW248299   2.065   3.692   5.399 -0.0099  1.3547 -0.9333
15620SOL     OW48300   6.535   3.195   6.104  0.2418  0.1790  0.6684
15620SOL    HW148301   6.511   3.110   6.142 -0.1325 -0.2110 -0.3887
15620SOL    HW248302   6.452   3.243   6.099  0.6790  1.3094  2.8167
15621SOL     OW48303   6.496   5.763   8.158 -0.2119  0.6730 -0.2406
15621SOL    HW148304   6.563   5.769   8.226 -0.1363  2.2648 -0.4190
15621SOL    HW248305   6.496   5.849   8.117 -1.2943  0.2025 -1.2783
15622SOL     OW48306   5.146   2.469  11.184 -0.0955 -0.0534  0.5134
15622SOL    HW148307   5.205   2.532  11.142  0.5345  0.5887  2.2409
15622SOL    HW248308   5.202   2.394  11.204 -1.0674 -1.7259 -2.4915
15623SOL     OW48309   1.758   2.357   6.491 -0.3243  0.0898  0.2960
15623SOL    HW148310   1.806   2.439   6.488 -2.9475  1.7396 -0.1957
15623SOL    HW248311   1.718   2.350   6.404 -2.3436 -0.2140  1.1862
15624SOL     OW48312   7.646   7.805  10.300  0.1786 -0.0640  0.0033
15624SOL    HW148313   7.643   7.710  10.310  0.5483  0.1013  2.0924
15624SOL    HW248314   7.560   7.835  10.332  0.4291  0.3669  0.2716
15625SOL     OW48315   6.795   4.584  10.098  0.0241 -0.7231  0.7531
15625SOL    HW148316   6.842   4.530  10.162  0.7108 -0.7781  0.2023
15625SOL    HW248317   6.769   4.522  10.029  1.1638 -0.3038 -0.0811
15626SOL     OW48318   4.816   0.961   6.002  0.3139 -0.2088  0.1732
15626SOL    HW148319   4.764   0.915   5.936 -1.1157 -1.8057  2.2804
15626SOL    HW248320   4.903   0.968   5.963 -1.2349  2.3630 -3.4212
15627SOL     OW48321   0.344   0.715   8.558  0.2674 -0.3653  0.4090
15627SOL    HW148322   0.421   0.716   8.500 -0.7822 -0.2905 -1.0490
15627SOL    HW248323   0.347   0.798   8.604  0.2326  0.3482 -0.8194
15628SOL     OW48324   0.392   6.654   9.144 -0.0042 -0.5704 -0.2351
15628SOL    HW148325   0.466   6.705   9.177  1.2549 -2.1616 -0.4855
15628SOL    HW248326   0.352   6.711   9.078  2.0580 -0.3117 -1.3624
15629SOL     OW48327   3.377   4.686   3.529  0.1097  0.4757  0.6429
15629SOL    HW148328   3.461   4.707   3.571 -0.2166  2.9127  0.2232
15629SOL    HW248329   3.398   4.679   3.436  0.0432 -0.2487  0.6752
15630SOL     OW48330   6.719   2.716   1.251 -0.3087  0.2636  0.1602
15630SOL    HW148331   6.650   2.762   1.203 -0.1121 -0.8861 -1.2580
15630SOL    HW248332   6.793   2.777   1.250 -0.0254 -0.0444 -1.7686
15631SOL     OW48333   5.751   3.739   8.107  0.0555  0.2972  1.1040
15631SOL    HW148334   5.739   3.833   8.119 -0.6282  0.1747  1.4448
15631SOL    HW248335   5.830   3.731   8.053 -0.1275  1.0798  0.7061
15632SOL     OW48336   6.454   6.217   5.174  0.4400 -0.0969 -0.6231
15632SOL    HW148337   6.418   6.128   5.176 -0.3599  0.2343  0.0729
15632SOL    HW248338   6.410   6.259   5.101 -0.6552  0.3160  0.2420
15633SOL     OW48339   1.140   4.273   1.790 -0.3467  0.0489  0.1245
15633SOL    HW148340   1.164   4.186   1.759 -0.7766  0.0423 -0.1966
15633SOL    HW248341   1.048   4.265   1.815 -0.5203  0.5232 -0.3362
15634SOL     OW48342   6.059   4.348   4.150  0.2779 -0.2442  0.0908
15634SOL    HW148343   6.112   4.304   4.083  0.6912 -0.2811  0.4404
15634SOL    HW248344   6.122   4.371   4.219 -0.2304 -0.6495  0.6937
15635SOL     OW48345   4.479   5.695   0.555 -0.4726 -0.4909  0.2001
15635SOL    HW148346   4.513   5.724   0.470  0.4249  0.1712  0.7633
15635SOL    HW248347   4.547   5.638   0.590 -0.3659  0.0656  0.9188
15636SOL     OW48348   6.163   6.420   3.490 -0.0387 -0.4533 -0.0534
15636SOL    HW148349   6.238   6.459   3.535  0.0656 -0.0661 -0.5472
15636SOL    HW248350   6.106   6.494   3.471 -0.0365 -0.5947 -0.6337
15637SOL     OW48351   3.555   0.217   7.054 -0.3925  0.8870 -0.0368
15637SOL    HW148352   3.469   0.196   7.092 -0.1499  1.1451  0.6786
15637SOL    HW248353   3.544   0.305   7.019 -0.4739  0.8502 -0.1038
15638SOL     OW48354   3.268   0.829  10.407  0.0673  0.6589 -0.0672
15638SOL    HW148355   3.330   0.824  10.480 -0.6432 -0.7789  0.4666
15638SOL    HW248356   3.187   0.860  10.446 -0.0646  0.7601 -0.4191
15639SOL     OW48357   0.678   2.592   0.032 -0.1480 -0.1779  0.6203
15639SOL    HW148358   0.700   2.521   0.093 -0.8603  1.7135  3.2740
15639SOL    HW248359   0.596   2.628   0.065 -0.2340  1.3783 -1.1155
15640SOL     OW48360   6.081   6.699   0.828  0.6117  0.4614  0.4422
15640SOL    HW148361   6.115   6.788   0.820 -0.1322  0.7400  0.2284
15640SOL    HW248362   6.119   6.652   0.755  1.0276  0.5987  0.5678
15641SOL     OW48363   5.555   3.814   1.837  0.1055  0.1401 -0.1660
15641SOL    HW148364   5.478   3.787   1.789  1.0117  1.7045 -2.6732
15641SOL    HW248365   5.619   3.743   1.823  0.0211  0.1030 -0.3547
15642SOL     OW48366   5.811   1.481  10.652  0.6898 -0.6383  0.2649
15642SOL    HW148367   5.782   1.495  10.742 -1.2943 -1.0286 -0.2682
15642SOL    HW248368   5.855   1.562  10.628 -0.8818  0.4129  0.8198
15643SOL     OW48369   1.164   0.277   6.445 -0.2896  0.0638  0.4887
15643SOL    HW148370   1.146   0.366   6.414 -1.7888 -0.8343 -1.4944
15643SOL    HW248371   1.201   0.232   6.369 -1.0553 -1.4006  0.9367
15644SOL     OW48372   2.487   5.099  11.766  0.3511  0.2514 -0.2957
15644SOL    HW148373   2.489   5.151  11.686 -1.4154  0.0002 -0.5440
15644SOL    HW248374   2.513   5.011  11.739 -2.0410 -0.2958 -1.0337
15645SOL     OW48375   1.053   3.161   7.487 -0.0683  0.1223  0.0735
15645SOL    HW148376   1.137   3.115   7.485 -1.1465 -1.9448 -1.0377
15645SOL    HW248377   1.004   3.118   7.558  0.3818  2.5121  1.9378
15646SOL     OW48378   3.845   6.564   7.365  0.7969  0.1006  0.4648
15646SOL    HW148379   3.754   6.589   7.383  0.9352 -0.1008  1.4798
15646SOL    HW248380   3.853   6.573   7.270 -0.0358  0.9537  0.4558
15647SOL     OW48381   7.141   3.374   4.843  0.2632  0.1084  0.4141
15647SOL    HW148382   7.119   3.307   4.908  2.0000 -0.4516  0.4543
15647SOL    HW248383   7.166   3.450   4.896 -1.6691  0.8473  0.3686
15648SOL     OW48384   1.425   3.930   0.340  0.4374  0.0629  0.4783
15648SOL    HW148385   1.379   3.938   0.424  0.6184 -1.3178  0.7446
15648SOL    HW248386   1.488   3.859   0.355  1.5946  0.9008 -0.3457
15649SOL     OW48387   6.706   3.678   7.907 -0.0492 -0.4537  0.0302
15649SOL    HW148388   6.663   3.652   7.988  0.1388 -0.2323  0.2033
15649SOL    HW248389   6.650   3.745   7.869 -0.7047 -1.3190 -0.5829
15650SOL     OW48390   3.579   3.898   6.439 -0.1451  0.2499 -0.3132
15650SOL    HW148391   3.648   3.842   6.475 -0.2515 -0.3030 -0.9493
15650SOL    HW248392   3.612   3.925   6.354  0.6271  2.5315  0.6350
15651SOL     OW48393   0.690   6.905   0.565  0.6668 -0.6618  0.0695
15651SOL    HW148394   0.626   6.936   0.629  0.1285 -0.7210 -0.4406
15651SOL    HW248395   0.718   6.984   0.519  1.1497 -0.6011  0.4532
15652SOL     OW48396   0.962   5.389   1.963  0.0612 -0.3513 -0.5718
15652SOL    HW148397   0.991   5.319   2.023  0.7389  0.0607 -0.4132
15652SOL    HW248398   0.975   5.353   1.876  0.7068 -0.3122 -0.4958
15653SOL     OW48399   5.294   2.293  10.187 -0.4585 -0.5223  0.4141
15653SOL    HW148400   5.304   2.354  10.260  0.4283  0.0760 -0.1922
15653SOL    HW248401   5.380   2.290  10.146 -0.5818 -1.9306  0.2235
15654SOL     OW48402   3.883   0.083   8.541  0.6280 -0.2537  0.1393
15654SOL    HW148403   3.978   0.081   8.552  0.8078  1.1404 -0.8355
15654SOL    HW248404   3.857   0.169   8.576 -0.0691  0.0125 -0.9961
15655SOL     OW48405   7.169   1.732   2.328  0.2825  0.1376  0.2356
15655SOL    HW148406   7.119   1.714   2.248  0.4897 -1.2195  0.3842
15655SOL    HW248407   7.103   1.764   2.390  0.3206  2.4406 -0.8191
15656SOL     OW48408   6.403   6.574   6.636 -0.2713  0.0535 -0.0404
15656SOL    HW148409   6.435   6.485   6.649 -1.2622 -0.1872  0.9759
15656SOL    HW248410   6.332   6.583   6.700 -2.3324  0.4819 -2.2136
15657SOL     OW48411   4.694   4.677   8.688  0.4210 -0.2464 -0.2575
15657SOL    HW148412   4.615   4.703   8.640  0.9354 -2.3305 -2.4631
15657SOL    HW248413   4.754   4.751   8.679 -0.4870  0.4693 -0.5063
15658SOL     OW48414   7.079   3.669   5.278 -0.3680  0.3916  0.1858
15658SOL    HW148415   6.993   3.709   5.292 -0.3872  0.4290 -0.0272
15658SOL    HW248416   7.139   3.721   5.331  0.0171  2.2717 -1.9419
15659SOL     OW48417   7.271   5.464   4.562  1.0547  0.4218  0.3626
15659SOL    HW148418   7.298   5.465   4.654  0.5156 -0.8214  0.5607
15659SOL    HW248419   7.333   5.522   4.519  1.2350  1.1419  1.5270
15660SOL     OW48420   0.192   7.313   6.100 -0.0268  0.2552 -0.3710
15660SOL    HW148421   0.265   7.351   6.051 -0.3199 -0.5210 -1.4309
15660SOL    HW248422   0.213   7.333   6.192  0.8460  1.1781 -0.7468
15661SOL     OW48423   5.119   0.046  11.483 -0.2348 -0.4524  0.1454
15661SOL    HW148424   5.178  -0.028  11.473  0.3666 -0.1485  1.2967
15661SOL    HW248425   5.176   0.120  11.501 -0.9579 -0.2194  1.6395
15662SOL     OW48426   0.695   2.167   6.100  0.8347 -0.2011  0.3230
15662SOL    HW148427   0.779   2.198   6.067  0.2013  0.9647 -0.2551
15662SOL    HW248428   0.679   2.085   6.053  0.6444  0.6811 -1.1896
15663SOL     OW48429   3.587   4.838   9.213 -0.4132 -0.2048  0.7562
15663SOL    HW148430   3.598   4.763   9.155 -0.4816 -0.2963  0.8595
15663SOL    HW248431   3.521   4.809   9.277 -1.7916  0.5713 -0.2654
15664SOL     OW48432   2.248   1.914   8.850 -0.1385 -0.2580 -0.2544
15664SOL    HW148433   2.330   1.925   8.898  0.0737 -0.9344 -0.4496
15664SOL    HW248434   2.268   1.847   8.784 -0.9575 -0.7217 -0.0368
15665SOL     OW48435   0.570   5.196   3.052 -0.7303  0.0494  0.0074
15665SOL    HW148436   0.494   5.140   3.035 -0.7075 -0.1679  0.5994
15665SOL    HW248437   0.545   5.246   3.131 -1.0294  1.3694 -0.8879
15666SOL     OW48438   2.901   1.263   0.760  0.0236 -0.3096  0.1240
15666SOL    HW148439   2.971   1.316   0.798  0.5883 -0.0134 -1.2577
15666SOL    HW248440   2.913   1.272   0.665  0.0663 -2.7914 -0.1823
15667SOL     OW48441   7.389   0.861   1.601  0.1349 -0.4796  0.4645
15667SOL    HW148442   7.358   0.927   1.538  1.7852  1.2396  1.3434
15667SOL    HW248443   7.471   0.828   1.563  1.1879  0.6315  1.6606
15668SOL     OW48444   0.506   5.188   1.945 -0.4165 -0.5817 -0.0611
15668SOL    HW148445   0.570   5.187   2.017 -1.8144  1.2538  1.2942
15668SOL    HW248446   0.547   5.242   1.877 -1.1336  2.0862  1.5080
15669SOL     OW48447   2.017   2.884   3.346 -0.4262  0.2011 -0.1505
15669SOL    HW148448   1.994   2.793   3.369 -1.2374  0.1441 -1.1064
15669SOL    HW248449   2.105   2.878   3.311  0.1171  0.0219  1.1867
15670SOL     OW48450   1.064   1.224   2.853  0.2167 -0.3142 -0.3343
15670SOL    HW148451   1.005   1.258   2.785 -0.1576 -3.2023 -1.6035
15670SOL    HW248452   1.151   1.252   2.824 -0.1646  0.6551 -0.5900
15671SOL     OW48453   5.766   2.536   7.456 -0.0152 -0.0696 -0.2190
15671SOL    HW148454   5.793   2.466   7.516  1.5160  0.6136 -0.0642
15671SOL    HW248455   5.689   2.501   7.411  0.7644 -1.8850 -0.2144
15672SOL     OW48456   2.380   6.638  12.029 -0.5818  0.3346 -0.0628
15672SOL    HW148457   2.389   6.591  11.946 -0.4905 -0.3459  0.3181
15672SOL    HW248458   2.288   6.663  12.033 -0.6344  0.1773 -0.2711
15673SOL     OW48459   4.350   0.048  12.340  0.1279 -0.1677 -0.1687
15673SOL    HW148460   4.296   0.029  12.416 -0.8947 -1.1061 -1.0911
15673SOL    HW248461   4.290   0.089  12.278  0.4600 -1.1948 -1.2003
15674SOL     OW48462   1.084   6.218   2.814 -0.0411 -0.1754  0.4803
15674SOL    HW148463   1.164   6.269   2.803 -0.6130  0.4945 -0.8406
15674SOL    HW248464   1.080   6.162   2.736 -2.1993  1.7894 -0.9866
15675SOL     OW48465   0.483   5.539   7.791  0.1539  0.0090 -0.2504
15675SOL    HW148466   0.459   5.583   7.709 -2.9108 -0.8368  0.0704
15675SOL    HW248467   0.444   5.594   7.860  3.2239  1.0649  0.8035
15676SOL     OW48468   1.404   0.783   6.977 -0.6005  0.1039 -0.1781
15676SOL    HW148469   1.491   0.764   7.013  0.2740  0.7020 -1.8565
15676SOL    HW248470   1.392   0.877   6.991 -1.2342 -0.0681  0.5237
15677SOL     OW48471   7.204   4.639   4.190  0.2200 -0.8247 -0.2565
15677SOL    HW148472   7.259   4.715   4.171 -2.3687  1.0992 -0.6775
15677SOL    HW248473   7.219   4.620   4.283 -1.2527  2.2617  0.7423
15678SOL     OW48474   1.953   0.028   2.597  0.2356  0.1875 -0.3589
15678SOL    HW148475   1.865   0.031   2.558 -0.1552  0.1819  0.5065
15678SOL    HW248476   1.970   0.118   2.624 -0.4755 -0.2110  1.5545
15679SOL     OW48477   0.104   1.995  11.782  0.6121 -0.1954  0.3220
15679SOL    HW148478   0.127   2.013  11.873  1.9483  2.3393 -0.4199
15679SOL    HW248479   0.095   2.081  11.742 -2.3867 -1.1966 -1.4275
15680SOL     OW48480   1.450   6.573   6.572 -0.3364 -0.5961  0.0080
15680SOL    HW148481   1.447   6.643   6.507  0.1757 -0.0449  0.5570
15680SOL    HW248482   1.494   6.613   6.648  1.6899 -2.0327 -0.3197
15681SOL     OW48483   1.122   6.960   1.184 -0.0754 -0.0739  0.5543
15681SOL    HW148484   1.063   7.033   1.162 -0.2414 -0.1535  0.7353
15681SOL    HW248485   1.106   6.896   1.115  0.1337  0.0970  0.3461
15682SOL     OW48486   7.705   4.787   7.024 -0.3412  0.5903  0.1279
15682SOL    HW148487   7.637   4.719   7.028  0.5544 -0.2977  1.2910
15682SOL    HW248488   7.673   4.850   6.960 -1.9343 -0.1514  0.1412
15683SOL     OW48489   2.430   6.733   9.744  0.1270  0.1790  0.1691
15683SOL    HW148490   2.460   6.657   9.694 -0.5214  0.9324 -1.4536
15683SOL    HW248491   2.425   6.702   9.834  2.4243 -0.9362 -0.0026
15684SOL     OW48492   2.503   4.611   8.898  0.4026  0.4411 -0.5314
15684SOL    HW148493   2.599   4.608   8.904  0.4345  1.9917  0.4405
15684SOL    HW248494   2.474   4.617   8.989 -0.3463  4.1466 -0.8456
15685SOL     OW48495   1.804   3.761  11.961 -0.0588  0.6425 -0.0140
15685SOL    HW148496   1.795   3.701  11.888 -0.4183  1.8350 -0.9842
15685SOL    HW248497   1.818   3.705  12.037 -1.7769 -0.7260 -0.6576
15686SOL     OW48498   7.817   1.002  11.519  0.3274  0.3817  0.3933
15686SOL    HW148499   7.851   1.044  11.598 -0.7348  1.2163  0.4185
15686SOL    HW248500   7.881   1.023  11.451  1.7871 -1.1774  1.2026
15687SOL     OW48501   3.571   2.983   7.528  0.1281  0.1883 -0.4036
15687SOL    HW148502   3.648   2.927   7.526  0.6652  0.8325  1.1742
15687SOL    HW248503   3.600   3.063   7.573 -2.2794 -0.8992  3.4832
15688SOL     OW48504   4.983   2.765   4.534 -0.1239 -0.2844  0.2465
15688SOL    HW148505   4.892   2.783   4.510 -0.0479 -0.0693  0.1220
15688SOL    HW248506   5.012   2.699   4.471  0.7439  1.8012 -1.6594
15689SOL     OW48507   6.734   2.542   6.852 -0.0210 -0.2608  0.1813
15689SOL    HW148508   6.792   2.583   6.916  0.4406 -0.6839  0.0384
15689SOL    HW248509   6.650   2.586   6.864  0.3035  0.2925  0.4532
15690SOL     OW48510   6.846   0.209   9.473 -0.2781  0.1814 -0.3292
15690SOL    HW148511   6.871   0.254   9.553 -0.5217  0.1176 -0.2154
15690SOL    HW248512   6.875   0.119   9.486 -0.9210  0.0087 -0.0244
15691SOL     OW48513   1.750   1.746   1.364  0.1541  0.3779 -0.5015
15691SOL    HW148514   1.694   1.728   1.289  2.1732 -1.5715 -1.6312
15691SOL    HW248515   1.699   1.809   1.416 -2.5489 -0.3742 -2.0069
15692SOL     OW48516   2.280   1.524   6.525  0.3593  0.0709 -0.0681
15692SOL    HW148517   2.230   1.482   6.595 -0.3510 -0.0439 -0.6334
15692SOL    HW248518   2.242   1.611   6.518 -0.1526 -0.2104 -0.8825
15693SOL     OW48519   0.583   7.432  10.984 -0.6769 -0.0950  0.0562
15693SOL    HW148520   0.580   7.399  11.073  1.6629  2.3377  1.1928
15693SOL    HW248521   0.645   7.375  10.939  0.3051  0.3160  0.8455
15694SOL     OW48522   1.007   4.077   0.238  0.0359  0.1470  0.6944
15694SOL    HW148523   0.935   4.114   0.289 -1.9357 -0.8942 -1.1616
15694SOL    HW248524   1.005   3.984   0.260 -1.2045 -0.4235 -1.5206
15695SOL     OW48525   1.725   1.848   0.994 -0.1936  0.5797  0.9733
15695SOL    HW148526   1.753   1.910   1.061  0.1171 -0.5077  1.8932
15695SOL    HW248527   1.763   1.764   1.022 -1.5224 -0.2490  0.3867
15696SOL     OW48528   3.620   5.283   7.553 -0.2974  0.1434 -0.1687
15696SOL    HW148529   3.712   5.267   7.531 -0.4517  1.1760 -1.7803
15696SOL    HW248530   3.622   5.353   7.618  0.0531  0.5504 -0.6115
15697SOL     OW48531   0.884   1.286  12.366  0.2658 -0.4304 -0.4470
15697SOL    HW148532   0.966   1.295  12.317 -0.2898 -1.8223 -1.6799
15697SOL    HW248533   0.911   1.254  12.452  1.0372 -0.5671 -0.7334
15698SOL     OW48534   2.591   5.474   3.304 -0.2526  0.3028 -0.3291
15698SOL    HW148535   2.681   5.441   3.302 -0.6106 -0.8431  0.9574
15698SOL    HW248536   2.574   5.500   3.213  0.6391 -1.5467 -1.0920
15699SOL     OW48537   0.460   0.428  11.572 -0.0077  0.4508  0.0747
15699SOL    HW148538   0.457   0.371  11.648 -1.3636  2.3078  1.4970
15699SOL    HW248539   0.536   0.485  11.586  1.3611 -0.9011 -1.3545
15700SOL     OW48540   2.808   1.887   1.942  0.3838 -0.1521  0.4267
15700SOL    HW148541   2.808   1.848   1.855  0.2372 -0.2889  0.4882
15700SOL    HW248542   2.900   1.885   1.969  0.3181 -0.8459  0.6082
15701SOL     OW48543   7.557   6.079   8.181 -0.1013 -0.0453 -0.1958
15701SOL    HW148544   7.578   6.128   8.102 -1.6634  0.4651 -0.3300
15701SOL    HW248545   7.629   6.016   8.191  0.8531  0.8648 -1.1922
15702SOL     OW48546   6.179   3.337   8.078  0.1008 -0.2322 -0.0004
15702SOL    HW148547   6.184   3.350   8.173 -2.1018 -0.4060  0.1828
15702SOL    HW248548   6.231   3.409   8.042 -1.4808  1.6853  1.2961
15703SOL     OW48549   1.140   1.130   7.535 -0.2999  0.4988  0.3593
15703SOL    HW148550   1.084   1.055   7.515  0.4724 -0.0343  0.1550
15703SOL    HW248551   1.086   1.206   7.514 -0.4968 -0.0123 -1.0860
15704SOL     OW48552   2.636   3.102   3.962  0.2554  0.0597 -0.1997
15704SOL    HW148553   2.649   3.126   3.870 -0.6613  0.1768 -0.3081
15704SOL    HW248554   2.571   3.165   3.994 -2.2747 -2.2038 -0.5001
15705SOL     OW48555   3.808   0.913   0.020 -0.4624 -0.0774  0.2955
15705SOL    HW148556   3.793   0.821   0.041 -1.9505  0.0061 -0.2291
15705SOL    HW248557   3.770   0.924  -0.068  0.8584  0.7445 -0.1974
15706SOL     OW48558   1.144   6.876   9.138  0.2374 -0.0986 -0.0511
15706SOL    HW148559   1.227   6.895   9.094  0.1850 -2.1045 -1.1291
15706SOL    HW248560   1.119   6.789   9.106 -1.0250 -0.6338  2.1551
15707SOL     OW48561   0.982   7.148   3.754  0.3307 -0.5154  0.3682
15707SOL    HW148562   0.961   7.131   3.662  0.3746  1.6182 -0.0894
15707SOL    HW248563   0.952   7.238   3.769  3.1018  0.3135  1.5618
15708SOL     OW48564   1.831   7.848   9.153 -0.2558 -0.6174 -0.0943
15708SOL    HW148565   1.754   7.903   9.167 -0.0726 -0.1433 -0.8572
15708SOL    HW248566   1.878   7.851   9.236  0.7626  2.0000 -0.6709
15709SOL     OW48567   5.160   1.157   1.411  0.6215  0.3744 -1.0524
15709SOL    HW148568   5.217   1.229   1.437  1.0713 -0.0215 -0.9229
15709SOL    HW248569   5.197   1.125   1.329  0.7552 -0.0652 -0.8243
15710SOL     OW48570   1.750   6.335   7.120 -0.1482 -0.0469 -0.0933
15710SOL    HW148571   1.658   6.311   7.110 -0.7806  2.4282 -1.0937
15710SOL    HW248572   1.795   6.290   7.049 -0.7460 -0.5310 -0.1699
15711SOL     OW48573   1.326   3.827   2.038  0.9775 -0.0719 -0.7812
15711SOL    HW148574   1.373   3.836   2.121 -0.4158  0.9672 -0.0554
15711SOL    HW248575   1.306   3.734   2.031  1.1939 -0.1814  0.0055
15712SOL     OW48576   6.946   4.091   3.307  0.1708  0.4534 -0.0716
15712SOL    HW148577   6.884   4.029   3.266  2.1887 -1.5664 -0.2612
15712SOL    HW248578   6.915   4.100   3.397 -0.1707 -0.8314 -0.0452
15713SOL     OW48579   7.179   7.672   7.042 -0.3539 -0.0100 -0.6855
15713SOL    HW148580   7.100   7.725   7.032 -1.2077 -0.4412  2.4556
15713SOL    HW248581   7.153   7.584   7.016 -0.8846 -0.1006  0.1073
15714SOL     OW48582   0.709   5.329   0.853  0.5098 -0.6136 -0.3594
15714SOL    HW148583   0.790   5.370   0.823  0.0614 -0.2010 -1.0420
15714SOL    HW248584   0.668   5.395   0.909  0.7900 -0.9465  0.2531
15715SOL     OW48585   0.100   2.240   7.743 -0.4388  0.0800  0.0402
15715SOL    HW148586   0.150   2.253   7.823 -1.4579  1.4192  0.5039
15715SOL    HW248587   0.105   2.324   7.698 -0.7042 -0.3554 -0.8214
15716SOL     OW48588   5.876   6.563   7.713  0.6921  0.5630  0.4237
15716SOL    HW148589   5.920   6.647   7.703  1.5167  0.1115  0.1804
15716SOL    HW248590   5.887   6.520   7.628 -0.5883  0.5993  0.2108
15717SOL     OW48591   6.532   6.934   3.063  0.0329  0.3883  0.2816
15717SOL    HW148592   6.497   6.871   3.126 -1.9037  1.6456  0.5607
15717SOL    HW248593   6.469   6.933   2.991  0.5015  1.2641 -0.1548
15718SOL     OW48594   3.539   0.223   2.971 -0.8028  0.2162 -0.4031
15718SOL    HW148595   3.494   0.275   2.904 -0.3162  1.0414 -0.1001
15718SOL    HW248596   3.591   0.287   3.020 -0.4610 -0.5119  0.1957
15719SOL     OW48597   2.989   0.957   5.346 -0.5706 -0.1907 -0.2524
15719SOL    HW148598   2.972   1.045   5.381 -1.6902 -0.5529  0.1632
15719SOL    HW248599   2.973   0.898   5.420 -1.0225 -0.8243 -0.8363
15720SOL     OW48600   3.229   3.075   4.846 -0.7860 -0.1153  0.7501
15720SOL    HW148601   3.213   2.981   4.836 -1.0372  0.1402 -2.1160
15720SOL    HW248602   3.142   3.113   4.856 -0.8963 -0.0178 -0.4277
15721SOL     OW48603   6.123   3.705  11.095  0.7067  0.7712 -0.0047
15721SOL    HW148604   6.142   3.750  11.012 -2.2143  0.9249 -0.6952
15721SOL    HW248605   6.127   3.775  11.161  0.2732  1.2312 -0.4551
15722SOL     OW48606   4.799   1.115  12.294  0.2678 -0.0290  0.8980
15722SOL    HW148607   4.848   1.138  12.215  0.1765 -1.1284  0.5136
15722SOL    HW248608   4.864   1.079  12.353  0.1070 -0.4729  0.8050
15723SOL     OW48609   4.545   1.510   9.617 -0.1400  0.0531 -0.1913
15723SOL    HW148610   4.635   1.522   9.587  0.3310 -0.8817  0.7484
15723SOL    HW248611   4.504   1.595   9.605  1.7524  1.4237  2.2096
15724SOL     OW48612   5.261   6.374   1.022  0.4161 -0.2668  0.0024
15724SOL    HW148613   5.340   6.400   1.070  0.3293  0.1878 -0.0921
15724SOL    HW248614   5.268   6.420   0.938 -0.2984  0.3590  0.2720
15725SOL     OW48615   3.136   3.604   8.144 -0.2959 -0.0874  0.1148
15725SOL    HW148616   3.106   3.528   8.194  1.2985 -0.5135  0.4876
15725SOL    HW248617   3.056   3.644   8.111 -1.1739 -2.5188 -0.9750
15726SOL     OW48618   1.122   0.819  11.668  0.0736  0.0255 -0.1006
15726SOL    HW148619   1.177   0.772  11.605  2.9406  0.0235  2.1674
15726SOL    HW248620   1.118   0.909  11.634  0.3807 -0.2910 -0.9945
15727SOL     OW48621   0.601   1.263   5.257  0.4742 -0.1130 -0.3507
15727SOL    HW148622   0.591   1.263   5.352 -2.7388  1.4028 -0.5547
15727SOL    HW248623   0.629   1.352   5.236 -2.3459  0.7218 -0.9554
15728SOL     OW48624   5.732   7.750   9.214  0.2217 -0.2268  0.1805
15728SOL    HW148625   5.794   7.696   9.264  0.2048  0.7224  1.2568
15728SOL    HW248626   5.667   7.687   9.181  0.4472 -0.9288  1.0376
15729SOL     OW48627   1.479   0.128   6.405 -0.1115 -0.1061  0.2550
15729SOL    HW148628   1.433   0.147   6.323  2.4993 -0.4089 -1.3763
15729SOL    HW248629   1.479   0.033   6.411 -0.3400 -0.0832  0.6573
15730SOL     OW48630   7.897   4.064   7.888 -0.1543 -0.0097  0.3495
15730SOL    HW148631   7.889   3.977   7.850  1.9442  0.2086 -0.7272
15730SOL    HW248632   7.922   4.049   7.979  2.0897 -0.5821 -0.3205
15731SOL     OW48633   7.629   1.962   0.453  0.1170 -0.1528  0.0681
15731SOL    HW148634   7.719   1.934   0.469  0.9811  1.5404 -1.4874
15731SOL    HW248635   7.624   2.051   0.486 -0.5642  0.2614 -1.0718
15732SOL     OW48636   7.407   6.233   7.004 -0.8340  0.0064 -0.0723
15732SOL    HW148637   7.427   6.228   6.911 -2.2771  1.0755 -0.4707
15732SOL    HW248638   7.480   6.189   7.047 -1.3585 -2.8362 -1.8332
15733SOL     OW48639   5.626   0.057   6.860 -0.1901  0.9583  0.0228
15733SOL    HW148640   5.544   0.058   6.810  0.3650 -2.1974 -1.1715
15733SOL    HW248641   5.612  -0.010   6.927  1.5408 -0.0783 -0.5851
15734SOL     OW48642   4.148   6.687   8.796 -0.7935 -0.0568 -0.0441
15734SOL    HW148643   4.091   6.666   8.722 -0.2665 -1.7224 -0.0074
15734SOL    HW248644   4.206   6.612   8.804  0.3171  0.8693  0.9803
15735SOL     OW48645   0.640   5.870   5.802 -0.2509 -0.4185  0.3357
15735SOL    HW148646   0.725   5.827   5.798  0.6737  1.0396  2.3532
15735SOL    HW248647   0.648   5.944   5.742 -0.9541 -1.5202 -1.1941
15736SOL     OW48648   0.091   5.514   4.238  0.0551 -0.2486 -0.1973
15736SOL    HW148649   0.040   5.446   4.281  0.2399 -0.6886 -0.6614
15736SOL    HW248650   0.058   5.596   4.274  2.0630 -0.6236  2.9707
15737SOL     OW48651   7.836   5.226   9.776  0.6822  0.3149 -0.1880
15737SOL    HW148652   7.873   5.139   9.789  0.3766  0.3008  0.6973
15737SOL    HW248653   7.812   5.229   9.684  2.1506  0.0491 -0.5979
15738SOL     OW48654   4.042   5.984   7.395  0.6087  0.2674  0.0991
15738SOL    HW148655   4.051   5.953   7.485  0.2111 -2.2809 -0.6548
15738SOL    HW248656   4.128   5.972   7.356  0.3538 -0.3037 -0.3084
15739SOL     OW48657   1.152   2.192   9.543 -0.7061  0.3149 -0.3007
15739SOL    HW148658   1.235   2.219   9.584  0.0314 -1.9736 -0.1525
15739SOL    HW248659   1.173   2.180   9.451 -1.2115  0.9354 -0.5056
15740SOL     OW48660   1.479   2.682  11.281  0.6565 -0.4687 -0.0884
15740SOL    HW148661   1.485   2.690  11.186 -0.0752  2.3020  0.0136
15740SOL    HW248662   1.422   2.607  11.295 -0.5282  0.0343 -1.8997
15741SOL     OW48663   1.812   5.590   9.962  0.3679 -0.2856 -0.4932
15741SOL    HW148664   1.744   5.595   9.896 -0.5058  1.6669  0.4841
15741SOL    HW248665   1.774   5.537  10.032  1.3622 -2.5153 -1.5465
15742SOL     OW48666   6.997   6.383   8.292  0.3046  0.1677 -0.3619
15742SOL    HW148667   7.027   6.421   8.210 -1.4493 -1.1858 -1.7422
15742SOL    HW248668   7.019   6.448   8.359  2.4766  0.9838 -1.7585
15743SOL     OW48669   7.667   5.024  10.954 -0.2350  0.6565 -0.3631
15743SOL    HW148670   7.650   5.118  10.964 -0.5634  0.4397  1.6254
15743SOL    HW248671   7.745   5.019  10.898 -0.0175  2.1264 -0.2270
15744SOL     OW48672   2.466   0.764   2.099  0.7404  0.7343  0.6558
15744SOL    HW148673   2.516   0.701   2.049  0.6383  0.6082  0.7112
15744SOL    HW248674   2.531   0.809   2.153  0.7419  0.2948  1.0226
15745SOL     OW48675   4.035   0.209   0.275 -0.2642  0.2703 -0.1260
15745SOL    HW148676   3.986   0.145   0.326  1.2668 -0.0498  1.0113
15745SOL    HW248677   4.008   0.294   0.310  0.5117  0.0641  1.0049
15746SOL     OW48678   2.503   5.467   9.674  0.2106  1.2183 -0.6535
15746SOL    HW148679   2.588   5.430   9.649  0.9361  1.2725  1.5477
15746SOL    HW248680   2.525   5.548   9.721 -0.9471  0.5173  1.2047
15747SOL     OW48681   7.904   7.245   4.231 -0.2218  0.1083 -0.1277
15747SOL    HW148682   7.908   7.230   4.326 -0.5932 -1.7081 -0.3499
15747SOL    HW248683   7.866   7.332   4.222 -2.4383 -0.5927  1.4141
15748SOL     OW48684   4.487   3.016   0.683  0.1920 -0.0383 -0.2263
15748SOL    HW148685   4.429   3.016   0.758  1.4633 -0.5094  0.7931
15748SOL    HW248686   4.562   2.962   0.710  0.5549 -0.4571 -1.9252
15749SOL     OW48687   3.198   6.893   4.154 -0.4662  0.3169  0.0701
15749SOL    HW148688   3.218   6.813   4.203  0.2666 -1.1207 -2.3826
15749SOL    HW248689   3.225   6.964   4.212  0.3725 -1.2491  1.7076
15750SOL     OW48690   1.127   1.611   3.351 -0.7955 -0.7752  0.2045
15750SOL    HW148691   1.166   1.686   3.396 -0.7440 -0.8628  0.3058
15750SOL    HW248692   1.033   1.619   3.369 -0.6754 -1.3198  1.0918
15751SOL     OW48693   4.827   1.736   8.317 -0.0602 -0.3108  0.1235
15751SOL    HW148694   4.832   1.826   8.351 -0.4791 -0.6088  0.9961
15751SOL    HW248695   4.912   1.723   8.274  0.9245 -0.2557  1.9473
15752SOL     OW48696   7.567   0.621   8.926 -0.6590  0.0499 -0.1818
15752SOL    HW148697   7.591   0.533   8.956 -0.4965 -0.2174 -1.0843
15752SOL    HW248698   7.651   0.661   8.902 -0.5638  0.9359  1.4251
15753SOL     OW48699   1.614   2.344   6.261 -0.0090 -0.1176 -0.0655
15753SOL    HW148700   1.651   2.298   6.186  0.9729 -0.2048  0.4598
15753SOL    HW248701   1.528   2.304   6.273  0.9091 -2.0360  0.5291
15754SOL     OW48702   2.523   7.181   6.110  0.1780  0.0015  0.5241
15754SOL    HW148703   2.474   7.105   6.078  0.0804  1.0135 -1.9977
15754SOL    HW248704   2.460   7.231   6.160 -0.0346 -1.0302  1.3335
15755SOL     OW48705   1.718   1.365   7.875 -0.4997  0.0526 -0.7250
15755SOL    HW148706   1.722   1.460   7.877 -0.4096  0.0477  1.1611
15755SOL    HW248707   1.625   1.345   7.889 -0.7260 -0.1714 -2.2869
15756SOL     OW48708   0.659   6.296   6.164 -0.4218 -0.5382 -0.3184
15756SOL    HW148709   0.742   6.328   6.200  0.0260 -0.7784 -1.1119
15756SOL    HW248710   0.681   6.263   6.077 -1.4267 -0.2108 -0.7206
15757SOL     OW48711   5.193   3.645   7.098 -0.3960 -0.4168  0.1993
15757SOL    HW148712   5.224   3.594   7.024  1.1823  0.3334  0.2974
15757SOL    HW248713   5.259   3.714   7.109 -1.9611  1.0939  0.6420
15758SOL     OW48714   3.888   4.636   0.713  1.1878  0.4124  0.3647
15758SOL    HW148715   3.849   4.571   0.772 -0.2774 -0.1641 -1.1599
15758SOL    HW248716   3.872   4.601   0.625  1.0904  2.4399 -0.4801
15759SOL     OW48717   2.319   3.237   2.801 -0.5401  0.3248 -0.2257
15759SOL    HW148718   2.300   3.156   2.849  0.7475  0.5465  0.7200
15759SOL    HW248719   2.241   3.290   2.812 -0.7457 -0.1238  0.6126
15760SOL     OW48720   5.200   3.052   2.659  0.2518  0.1064 -0.1872
15760SOL    HW148721   5.249   3.098   2.589  0.5211  0.2068  0.0646
15760SOL    HW248722   5.191   2.963   2.626  1.0136 -0.0371 -0.0455
15761SOL     OW48723   5.256   1.007   9.902  0.0490  0.0443 -0.2785
15761SOL    HW148724   5.304   0.924   9.912  1.9894  1.0373 -0.8930
15761SOL    HW248725   5.279   1.057   9.980 -0.5700  0.2863 -0.2443
15762SOL     OW48726   0.944   4.300   9.745 -0.3601  0.1854 -0.2736
15762SOL    HW148727   0.956   4.376   9.688  1.2237 -0.4174 -0.8120
15762SOL    HW248728   0.907   4.336   9.826 -0.8306  1.3275 -0.9764
15763SOL     OW48729   7.848   4.972   3.975 -0.4904  0.0427  0.6853
15763SOL    HW148730   7.862   4.960   4.069 -1.5351  0.9585  0.9759
15763SOL    HW248731   7.913   4.915   3.934 -1.7076 -2.3954  1.9574
15764SOL     OW48732   7.614   5.359   6.422 -0.3892  0.0309 -0.0203
15764SOL    HW148733   7.540   5.307   6.453  0.2061 -0.2143  1.0326
15764SOL    HW248734   7.659   5.387   6.502  0.4696  0.4452 -0.6341
15765SOL     OW48735   0.437   2.881   6.049 -0.7780 -0.3991 -0.2096
15765SOL    HW148736   0.429   2.796   6.006 -0.4706 -0.3666 -0.3287
15765SOL    HW248737   0.523   2.878   6.092 -0.4146  0.1696 -0.8989
15766SOL     OW48738   7.251   4.411   8.301 -0.2193  0.2524 -0.1888
15766SOL    HW148739   7.242   4.449   8.213 -3.0534  1.6145  0.5568
15766SOL    HW248740   7.246   4.486   8.360  0.1964 -0.7694  1.1818
15767SOL     OW48741   3.309   3.781   2.325  0.7695  0.5214 -0.0322
15767SOL    HW148742   3.282   3.692   2.346 -1.4993  1.5924  2.2450
15767SOL    HW248743   3.355   3.774   2.242 -0.4145 -2.5839 -0.5505
15768SOL     OW48744   0.022   0.217   2.069  0.1275 -0.2507 -0.0625
15768SOL    HW148745   0.052   0.304   2.094  0.1044 -0.8204  2.1768
15768SOL    HW248746  -0.028   0.186   2.144 -0.6807 -1.8388 -1.1893
15769SOL     OW48747   2.528   5.513  12.405 -0.1082  0.0744  0.0720
15769SOL    HW148748   2.623   5.515  12.389 -0.1352  0.4794 -0.0361
15769SOL    HW248749   2.491   5.569  12.337 -0.2537  1.6216  1.3683
15770SOL     OW48750   4.465   0.483   8.027  0.8354 -0.0106  0.1488
15770SOL    HW148751   4.473   0.396   8.066  0.4259  0.1817  0.6752
15770SOL    HW248752   4.512   0.476   7.943 -0.7998 -1.2889 -0.7258
15771SOL     OW48753   7.501   1.726  11.381 -0.7539 -0.1553  0.1021
15771SOL    HW148754   7.504   1.767  11.295  0.5659  1.2278  0.7609
15771SOL    HW248755   7.593   1.720  11.408 -1.1988  0.8547  2.0368
15772SOL     OW48756   4.998   5.246   0.662  0.2399  0.6180  0.1837
15772SOL    HW148757   4.934   5.176   0.675  1.0579 -0.4608 -1.3088
15772SOL    HW248758   4.957   5.307   0.601  0.0861  0.6792  0.3486
15773SOL     OW48759   1.765   1.862   5.490 -0.0207  0.2077  0.3093
15773SOL    HW148760   1.853   1.882   5.522 -0.4963  0.5829  1.4611
15773SOL    HW248761   1.746   1.933   5.428  0.0821  0.7467  0.8783
15774SOL     OW48762   4.475   0.595   4.629  0.4839  0.1599 -0.2099
15774SOL    HW148763   4.515   0.512   4.600  0.6789 -0.3596  1.4455
15774SOL    HW248764   4.414   0.569   4.698 -1.4182  1.1530 -1.4353
15775SOL     OW48765   1.087   0.336   3.575 -0.4121  0.2159 -0.2709
15775SOL    HW148766   1.164   0.389   3.597 -0.1995 -0.0443 -0.3863
15775SOL    HW248767   1.090   0.328   3.480 -1.7356  1.9661 -0.5208
15776SOL     OW48768   6.569   1.314   5.138  0.1781  0.3678  0.5523
15776SOL    HW148769   6.529   1.398   5.115 -0.4956 -0.1866 -0.3680
15776SOL    HW248770   6.603   1.327   5.227 -0.7195  1.3335  0.7748
15777SOL     OW48771   0.307   3.519  11.007  0.7467  0.3896 -0.1918
15777SOL    HW148772   0.396   3.485  10.998  0.3573 -0.5147 -0.7894
15777SOL    HW248773   0.262   3.491  10.927 -0.2466  0.2816  0.3803
15778SOL     OW48774   0.494   7.043   5.695  0.1843 -0.7565  0.3545
15778SOL    HW148775   0.406   7.029   5.730  0.2128  0.2297  0.8356
15778SOL    HW248776   0.480   7.072   5.605 -0.1358  2.0914  1.2382
15779SOL     OW48777   5.830   0.437   2.371  0.3245  0.4670 -0.1522
15779SOL    HW148778   5.818   0.476   2.284 -1.2100 -0.2830 -0.3176
15779SOL    HW248779   5.852   0.346   2.354  0.6425  0.4677  0.2480
15780SOL     OW48780   0.143   0.870   6.039 -0.7089  0.5533 -0.2324
15780SOL    HW148781   0.167   0.872   6.132  0.3645 -0.0274 -0.4862
15780SOL    HW248782   0.220   0.903   5.993 -0.2481 -1.5091 -1.0787
15781SOL     OW48783   4.648   4.527  10.357 -0.1916 -0.3155 -0.0958
15781SOL    HW148784   4.679   4.615  10.338 -0.1628 -0.4689 -0.7966
15781SOL    HW248785   4.673   4.476  10.280 -0.2944 -0.9140  0.2611
15782SOL     OW48786   1.025   0.473   0.251 -0.4961  0.7092  0.0067
15782SOL    HW148787   1.100   0.453   0.308  0.3633 -1.1088 -1.6479
15782SOL    HW248788   1.020   0.398   0.192 -3.1477  1.2031 -0.4747
15783SOL     OW48789   7.623   6.499   8.847 -0.3184 -0.0219  0.4684
15783SOL    HW148790   7.632   6.505   8.752 -3.5705 -0.4757 -0.0027
15783SOL    HW248791   7.630   6.405   8.865  2.7865  0.2434  1.1205
15784SOL     OW48792   5.710   3.693  10.856  0.1900  0.2092 -0.1267
15784SOL    HW148793   5.780   3.677  10.919  0.0239 -1.7205 -0.3784
15784SOL    HW248794   5.631   3.664  10.900  0.2453 -2.5133 -1.6464
15785SOL     OW48795   4.219   5.189   7.676  0.6379  0.2915 -0.1398
15785SOL    HW148796   4.222   5.262   7.738  2.5453  0.4027 -0.3053
15785SOL    HW248797   4.240   5.112   7.728  2.2280  0.3825 -0.6114
15786SOL     OW48798   1.727   7.657   4.438  0.3535 -0.5254 -0.0230
15786SOL    HW148799   1.725   7.720   4.366 -1.8006 -1.2280 -0.6518
15786SOL    HW248800   1.775   7.702   4.508  0.0026  1.3013 -0.8916
15787SOL     OW48801   5.886   3.135  10.727  0.3414  0.3529 -0.5584
15787SOL    HW148802   5.919   3.224  10.743  1.7635 -0.3908  0.8510
15787SOL    HW248803   5.964   3.082  10.714 -0.4253 -0.9640  0.0287
15788SOL     OW48804   0.071   3.043   4.466  0.4253  0.4784  0.0550
15788SOL    HW148805   0.065   2.953   4.497 -0.1911  1.4333  3.1487
15788SOL    HW248806   0.163   3.055   4.443  0.8154 -0.5872  0.9728
15789SOL     OW48807   1.647   7.150   5.556 -0.0475 -0.0241 -0.2397
15789SOL    HW148808   1.647   7.193   5.470 -0.9791 -0.0842 -0.2759
15789SOL    HW248809   1.662   7.058   5.536  0.8215  0.1127 -0.2493
15790SOL     OW48810   2.691   1.658   4.687  0.3173  0.1312 -0.3904
15790SOL    HW148811   2.735   1.645   4.603  1.4178 -0.8057  0.2931
15790SOL    HW248812   2.622   1.592   4.689 -0.0362  0.4848 -0.7581
15791SOL     OW48813   4.384   0.124   6.752  0.2083  0.6956  0.1224
15791SOL    HW148814   4.306   0.068   6.750  0.1465  0.7762 -2.0072
15791SOL    HW248815   4.443   0.086   6.687  0.7187  2.3306 -0.4210
15792SOL     OW48816   2.353   0.954   7.574 -0.1352  0.3462 -0.1849
15792SOL    HW148817   2.398   0.871   7.589 -0.6815  0.0269 -0.2822
15792SOL    HW248818   2.415   1.005   7.522 -0.2708 -0.4553 -1.1636
15793SOL     OW48819   2.505   0.727   9.512  0.2563 -0.3382  0.1924
15793SOL    HW148820   2.491   0.660   9.445  1.0083  0.3143 -0.6449
15793SOL    HW248821   2.434   0.714   9.574 -0.8936 -0.5014 -1.1106
15794SOL     OW48822   0.680   1.305   1.654 -0.0010 -0.2054 -0.2445
15794SOL    HW148823   0.748   1.369   1.676 -0.7029  0.5070 -0.0789
15794SOL    HW248824   0.718   1.220   1.677  0.6683  0.2189  0.2558
15795SOL     OW48825   6.887   5.534  12.303 -0.2446  0.1494 -0.1581
15795SOL    HW148826   6.818   5.483  12.345  0.3649 -0.8484 -0.3332
15795SOL    HW248827   6.956   5.539  12.369 -0.6321  1.5280  0.1806
15796SOL     OW48828   2.548   4.880  10.879 -0.2783  0.2631 -0.0557
15796SOL    HW148829   2.626   4.887  10.824 -0.5738  2.3533 -0.2976
15796SOL    HW248830   2.579   4.840  10.960  0.4569 -1.5012 -1.1549
15797SOL     OW48831   1.888   5.072   4.780 -0.1325  0.5524  0.3368
15797SOL    HW148832   1.879   5.070   4.685  1.5878 -0.7307  0.1315
15797SOL    HW248833   1.857   4.986   4.809  0.3785  0.5074  0.7845
15798SOL     OW48834   4.125   2.072   5.707  0.0725  0.3029 -0.0242
15798SOL    HW148835   4.193   2.119   5.657  0.7539 -1.1856 -0.5546
15798SOL    HW248836   4.084   2.140   5.761  0.4700  1.6545 -1.3489
15799SOL     OW48837   5.691   6.235  11.256  0.0970 -0.3261 -0.5159
15799SOL    HW148838   5.596   6.223  11.259  0.1803 -0.8080  1.1182
15799SOL    HW248839   5.703   6.329  11.271 -0.0857 -0.6379  2.0838
15800SOL     OW48840   3.957   7.051  10.791 -0.2412 -0.3587  0.8221
15800SOL    HW148841   4.033   7.006  10.754  0.0909  0.0848  0.9507
15800SOL    HW248842   3.907   6.982  10.834 -0.9011 -0.9904 -0.8611
15801SOL     OW48843   5.931   0.015  11.422 -0.5114 -0.6240 -0.1157
15801SOL    HW148844   5.931   0.058  11.336 -0.1259 -1.6370 -0.6327
15801SOL    HW248845   5.850  -0.036  11.424 -0.6344 -0.4178  0.2220
15802SOL     OW48846   2.127   5.577  12.264 -0.1328  0.0302 -0.2381
15802SOL    HW148847   2.161   5.503  12.315  1.0437  0.6514 -0.0733
15802SOL    HW248848   2.038   5.591  12.296  0.3651  0.0105  1.2046
15803SOL     OW48849   2.435   7.399   5.855 -0.0885 -0.4395  1.0067
15803SOL    HW148850   2.439   7.487   5.892 -0.5468 -0.3105  0.7666
15803SOL    HW248851   2.517   7.357   5.880  0.3146  0.2013  0.7640
15804SOL     OW48852   4.941   2.385   9.739 -0.1163 -0.0689 -0.2905
15804SOL    HW148853   4.916   2.475   9.758 -0.7688 -0.4153  0.6124
15804SOL    HW248854   5.036   2.386   9.736 -0.1249  0.6648 -0.3877
15805SOL     OW48855   2.716   1.720   3.778 -0.5067  0.3746  0.3654
15805SOL    HW148856   2.688   1.663   3.850  0.6202  2.2085  2.3381
15805SOL    HW248857   2.805   1.691   3.757  0.3729  1.8102  1.9059
15806SOL     OW48858   5.882   7.018   0.309  0.8910 -0.4908 -0.0071
15806SOL    HW148859   5.820   7.051   0.244  1.1649 -0.2026 -0.1292
15806SOL    HW248860   5.963   7.065   0.289  0.8460 -0.0355  0.8470
15807SOL     OW48861   2.536   4.602   5.691  0.1688 -0.6988 -0.2594
15807SOL    HW148862   2.612   4.655   5.667 -0.1562  0.5690  1.3683
15807SOL    HW248863   2.574   4.524   5.733  0.5938  0.5322  1.7439
15808SOL     OW48864   7.004   3.327   1.840  0.4161  0.1902 -0.0331
15808SOL    HW148865   7.030   3.296   1.753 -0.4740  0.4505 -0.3957
15808SOL    HW248866   7.080   3.377   1.870  0.5283  0.5654 -0.8927
15809SOL     OW48867   3.350   1.718   5.864 -0.2200 -0.4923  0.3076
15809SOL    HW148868   3.330   1.776   5.937  1.1571 -2.1551  2.1129
15809SOL    HW248869   3.410   1.769   5.808 -0.9551  0.6508  0.5348
15810SOL     OW48870   7.602   2.675  12.216  0.7959  0.8045  0.1784
15810SOL    HW148871   7.534   2.678  12.149 -1.7986 -0.8994  2.5028
15810SOL    HW248872   7.577   2.743  12.278  1.5250  0.5067  0.8109
15811SOL     OW48873   4.467   3.295   1.880  0.4732 -0.5582 -0.4130
15811SOL    HW148874   4.540   3.266   1.826 -0.1675 -1.5089 -0.7799
15811SOL    HW248875   4.458   3.228   1.947  0.8885  0.3187  0.5600
15812SOL     OW48876   1.726   6.821  11.429  0.4642  0.4167  0.3784
15812SOL    HW148877   1.639   6.824  11.468  1.0173  0.2096  1.6641
15812SOL    HW248878   1.781   6.872  11.489  1.0534  1.3437 -0.9056
15813SOL     OW48879   7.280   4.849   7.587 -0.3908  0.1582  0.0038
15813SOL    HW148880   7.304   4.940   7.568 -0.6133  0.0240 -0.9322
15813SOL    HW248881   7.207   4.830   7.528 -0.5373 -0.5400  0.3985
15814SOL     OW48882   4.569   1.150   0.924  0.3508  0.0515  0.2832
15814SOL    HW148883   4.635   1.087   0.954  0.3797  0.0437  0.2051
15814SOL    HW248884   4.555   1.127   0.832  2.3540  1.8321 -0.5522
15815SOL     OW48885   7.338   1.916  10.126 -0.8020 -0.0381 -0.2944
15815SOL    HW148886   7.423   1.959  10.116 -1.0775  0.4395 -0.6255
15815SOL    HW248887   7.297   1.924  10.040 -0.3811 -2.0374 -0.7216
15816SOL     OW48888   4.455   6.113   4.148  0.3560  0.5174  0.0025
15816SOL    HW148889   4.396   6.065   4.090  2.7752 -0.9299 -1.4533
15816SOL    HW248890   4.399   6.146   4.218 -2.1336 -0.7452 -1.2756
15817SOL     OW48891   1.815   6.232  11.657 -0.0928  0.5049  0.3796
15817SOL    HW148892   1.840   6.273  11.574  1.3208  0.5601  0.8203
15817SOL    HW248893   1.725   6.262  11.671  0.2427  1.9184 -0.2686
15818SOL     OW48894   4.074   3.020  12.199  0.0929  0.6345 -0.0760
15818SOL    HW148895   4.026   3.062  12.127  0.9115  2.6171  0.4715
15818SOL    HW248896   4.145   3.081  12.220  1.5332 -1.1646  0.6221
15819SOL     OW48897   0.501   4.667  12.004 -0.0331  0.1261  0.0048
15819SOL    HW148898   0.536   4.579  11.991 -1.3105 -0.3872 -0.1017
15819SOL    HW248899   0.445   4.682  11.927  0.5613  1.2256 -0.2220
15820SOL     OW48900   1.417   3.803   3.135 -0.5536  0.0600  0.2788
15820SOL    HW148901   1.337   3.855   3.129 -0.6994 -0.2638 -0.9182
15820SOL    HW248902   1.488   3.867   3.125 -0.6888  0.2333  0.4236
15821SOL     OW48903   4.279   7.101   6.875  0.3568  0.2752  0.9137
15821SOL    HW148904   4.317   7.188   6.857 -0.5128  0.5669  0.4098
15821SOL    HW248905   4.348   7.040   6.853  0.1787  0.7414 -1.1473
15822SOL     OW48906   1.172   2.939   7.928 -0.1289  0.1203  0.0329
15822SOL    HW148907   1.257   2.912   7.894  0.4447  1.5591  0.2528
15822SOL    HW248908   1.137   2.861   7.970 -0.3223 -1.3956 -2.7328
15823SOL     OW48909   6.790   4.932   7.290  0.5289 -0.0615  0.1472
15823SOL    HW148910   6.697   4.937   7.312  0.8802 -0.7215  1.9262
15823SOL    HW248911   6.803   4.841   7.262  0.4786  0.2648 -0.9763
15824SOL     OW48912   0.640   7.946   1.841 -0.1577 -0.4469 -0.2951
15824SOL    HW148913   0.614   7.939   1.750 -0.8476 -0.8862 -0.0716
15824SOL    HW248914   0.576   7.892   1.889 -0.5199  0.6980  0.5693
15825SOL     OW48915   5.979   0.253  11.249 -0.2540 -0.0406  0.0653
15825SOL    HW148916   5.923   0.321  11.287 -1.7801 -1.1692 -0.0747
15825SOL    HW248917   5.926   0.216  11.178  2.2327  1.5820 -2.8741
15826SOL     OW48918   0.892   7.218   8.739  0.5091  0.1887 -0.3506
15826SOL    HW148919   0.797   7.214   8.749  0.5085  1.3108  0.1831
15826SOL    HW248920   0.926   7.217   8.829  0.9822  0.2831 -0.5231
15827SOL     OW48921   1.541   7.071   6.889 -0.1678  0.9347 -0.0294
15827SOL    HW148922   1.550   7.149   6.944 -1.3572  0.6820  0.5538
15827SOL    HW248923   1.611   7.079   6.824  0.6936  1.6903  0.9741
15828SOL     OW48924   2.611   6.098   4.611  0.1409 -0.2240 -0.1415
15828SOL    HW148925   2.524   6.137   4.616  0.4646  0.5784 -0.5591
15828SOL    HW248926   2.639   6.090   4.702  0.0616  0.5273 -0.0422
15829SOL     OW48927   4.660   2.995   5.454 -0.1082 -0.2919  0.2927
15829SOL    HW148928   4.618   3.042   5.526  0.1533  2.8822 -1.4730
15829SOL    HW248929   4.588   2.970   5.397 -0.0452  0.1608  0.0160
15830SOL     OW48930   0.687   5.614   3.876 -0.4306 -0.4657  0.3529
15830SOL    HW148931   0.615   5.662   3.918 -0.0494  0.2197  0.2333
15830SOL    HW248932   0.683   5.640   3.784 -1.4332 -2.1737 -0.1336
15831SOL     OW48933   2.829   0.088   2.287  0.3061  0.8289  0.0393
15831SOL    HW148934   2.763   0.149   2.319  1.1226  1.4196  0.6290
15831SOL    HW248935   2.846   0.030   2.362  1.4432  1.5488  0.3774
15832SOL     OW48936   2.652   1.621   5.628  0.2001  0.2358  0.4961
15832SOL    HW148937   2.635   1.713   5.606  3.2512  0.9419  0.6755
15832SOL    HW248938   2.680   1.582   5.545 -0.5235 -0.4099  0.5483
15833SOL     OW48939   5.439   2.538   3.612  0.2909  0.2854 -0.0903
15833SOL    HW148940   5.411   2.522   3.521 -0.7314  0.9349  0.0948
15833SOL    HW248941   5.534   2.538   3.608  0.4017 -3.1877 -0.5507
15834SOL     OW48942   2.863   0.982   7.569 -0.4466  0.1745 -0.0651
15834SOL    HW148943   2.800   0.941   7.628 -0.2952  3.0525  2.3044
15834SOL    HW248944   2.933   1.014   7.626  3.0921 -2.3677 -2.4912
15835SOL     OW48945   1.851   6.883  11.679 -0.1634 -0.4170 -0.4673
15835SOL    HW148946   1.896   6.897  11.763 -1.0326 -1.0306  0.1142
15835SOL    HW248947   1.847   6.788  11.670 -0.7766 -0.3619 -0.8203
15836SOL     OW48948   0.001   6.692   2.984  0.4940 -0.3218  0.1129
15836SOL    HW148949   0.053   6.666   2.909  1.3305 -1.0859  0.9260
15836SOL    HW248950  -0.008   6.612   3.036 -0.5707  0.0542  0.5273
15837SOL     OW48951   1.571   6.066   9.329  0.0299  0.1603 -0.5211
15837SOL    HW148952   1.622   6.130   9.279 -1.3961  0.4680 -1.6578
15837SOL    HW248953   1.522   6.118   9.393 -1.0694  0.2351 -1.3940
15838SOL     OW48954   5.242   0.012   3.688 -0.2198  0.8546 -0.1745
15838SOL    HW148955   5.293   0.093   3.691  0.8469  0.2506 -1.4954
15838SOL    HW248956   5.306  -0.058   3.701 -0.8380  0.1303 -0.9348
15839SOL     OW48957   1.980   0.267   1.329 -0.0451  0.2467  0.3207
15839SOL    HW148958   2.027   0.350   1.323 -0.7632  0.5868 -0.8432
15839SOL    HW248959   1.941   0.255   1.242  0.4146 -1.5352  0.3215
15840SOL     OW48960   5.688   5.423   2.489 -0.2385 -0.8313 -0.1361
15840SOL    HW148961   5.599   5.389   2.488 -0.1301 -1.1402  0.6238
15840SOL    HW248962   5.702   5.452   2.579  0.1588 -0.0525 -0.4355
15841SOL     OW48963   5.591   0.681   0.716 -0.0035 -0.4136 -0.5438
15841SOL    HW148964   5.594   0.620   0.642  0.5688 -1.4363  0.2951
15841SOL    HW248965   5.619   0.628   0.791 -0.2595  0.6920  0.3415
15842SOL     OW48966   1.775   0.775   5.025  0.2288 -0.7709 -0.3363
15842SOL    HW148967   1.723   0.850   4.995  1.0283 -0.8209 -1.9614
15842SOL    HW248968   1.738   0.753   5.110 -0.7066  0.8142 -0.2858
15843SOL     OW48969   6.665   2.480  11.811  0.6162  0.3958 -0.1343
15843SOL    HW148970   6.729   2.418  11.776 -1.1157 -0.4834 -1.9918
15843SOL    HW248971   6.582   2.433  11.805 -0.4322  2.0666  0.6480
15844SOL     OW48972   1.240   1.300   6.559  0.3919  0.0087 -0.2490
15844SOL    HW148973   1.306   1.265   6.499  0.7536 -0.0709  0.1864
15844SOL    HW248974   1.194   1.367   6.508 -0.2369 -1.0178 -1.0562
15845SOL     OW48975   6.149   4.387   9.414  0.0375 -0.0374 -0.2195
15845SOL    HW148976   6.176   4.423   9.498  0.2357 -0.1987 -0.2146
15845SOL    HW248977   6.089   4.316   9.436  0.3588 -0.3055 -0.2039
15846SOL     OW48978   1.351   4.801   8.445 -0.0153  0.1299  0.1588
15846SOL    HW148979   1.344   4.896   8.441  2.2029  0.3244 -0.2192
15846SOL    HW248980   1.377   4.782   8.535 -0.5695 -0.1458  0.2672
15847SOL     OW48981   7.366   4.190   7.953  0.2450  0.6145  0.1299
15847SOL    HW148982   7.282   4.194   7.906 -0.1842  2.8808  0.9235
15847SOL    HW248983   7.431   4.178   7.884 -0.7207 -2.2119 -0.4280
15848SOL     OW48984   4.320   4.513   7.901  0.5670  0.2537  0.3275
15848SOL    HW148985   4.354   4.533   7.989  3.6601  2.0260 -1.0778
15848SOL    HW248986   4.354   4.426   7.881  0.8803  0.3350  0.4873
15849SOL     OW48987   1.961   2.628  10.742 -0.5057 -0.1815  0.4846
15849SOL    HW148988   2.040   2.678  10.764  0.5062 -0.8303 -1.4187
15849SOL    HW248989   1.991   2.563  10.679 -2.2688 -1.5821  1.0081
15850SOL     OW48990   7.038   2.200   3.545 -0.2263  0.6991  0.2090
15850SOL    HW148991   7.112   2.160   3.499  0.3991  2.5339 -0.4367
15850SOL    HW248992   7.052   2.294   3.537 -1.1224  1.0908  2.5410
15851SOL     OW48993   0.527   5.674   4.281 -0.7366  0.3619 -0.1352
15851SOL    HW148994   0.588   5.743   4.309  0.2525 -0.0138 -1.3045
15851SOL    HW248995   0.579   5.617   4.225 -2.0993 -0.1425 -0.9355
15852SOL     OW48996   3.801   2.519   5.114 -0.2573  0.2508  0.2991
15852SOL    HW148997   3.804   2.593   5.054 -3.8088  0.8444  0.6072
15852SOL    HW248998   3.796   2.442   5.057  0.9509  0.4186 -0.0549
15853SOL     OW48999   1.547   7.060  11.783  0.2462  0.0021 -0.2188
15853SOL    HW149000   1.613   7.130  11.785  1.4402 -1.0776  1.1481
15853SOL    HW249001   1.519   7.056  11.692  0.5495  1.8782 -0.4384
15854SOL     OW49002   1.579   3.625   9.792  0.0301 -0.2773  0.6544
15854SOL    HW149003   1.524   3.689   9.837 -0.5258 -0.1832 -0.1309
15854SOL    HW249004   1.668   3.661   9.800 -0.4032  1.3487 -0.9046
15855SOL     OW49005   2.391   2.166   9.406 -0.0384  0.0848  0.2801
15855SOL    HW149006   2.312   2.149   9.355 -1.5658  2.6479  1.5819
15855SOL    HW249007   2.432   2.241   9.364  0.9420 -0.3457  0.4481
15856SOL     OW49008   7.538   2.471  10.583 -0.4732  0.5886  0.1020
15856SOL    HW149009   7.557   2.457  10.675  1.0105 -2.2361 -0.5073
15856SOL    HW249010   7.618   2.443  10.537 -1.8494 -0.0261 -2.0989
15857SOL     OW49011   4.149   4.140   4.020 -0.1657 -0.2051 -0.0100
15857SOL    HW149012   4.117   4.102   4.102 -0.5849 -0.9637 -0.5136
15857SOL    HW249013   4.069   4.162   3.972  0.0674  1.2045  0.2043
15858SOL     OW49014   0.652   4.058   7.400  0.6785  0.4456 -0.3998
15858SOL    HW149015   0.576   4.043   7.344 -0.5404  0.0883  1.2638
15858SOL    HW249016   0.647   4.152   7.421  0.9992  0.5288 -0.6829
15859SOL     OW49017   2.333   2.773   2.142 -0.0528  0.0910 -0.1326
15859SOL    HW149018   2.241   2.787   2.118 -1.2096 -0.0165  3.6490
15859SOL    HW249019   2.382   2.830   2.083 -2.7627  2.3282 -0.4162
15860SOL     OW49020   7.353   5.787   9.345  0.5860  0.0273 -0.3389
15860SOL    HW149021   7.275   5.741   9.376  0.8044 -1.3361 -1.6910
15860SOL    HW249022   7.426   5.746   9.391  0.5390  1.4217  1.0586
15861SOL     OW49023   7.790   5.355   8.835  0.2761  0.1403 -0.0410
15861SOL    HW149024   7.770   5.269   8.800 -2.3391  0.1204  1.2567
15861SOL    HW249025   7.810   5.339   8.928  1.3620  0.7752 -0.1512
15862SOL     OW49026   2.305   1.104  10.133  0.1849  0.2350  0.0063
15862SOL    HW149027   2.281   1.029  10.188  0.6545 -0.7094 -1.0451
15862SOL    HW249028   2.385   1.139  10.172 -0.4818  0.7264  0.9842
15863SOL     OW49029   0.397   7.633   4.977  0.4258  0.3147 -0.4716
15863SOL    HW149030   0.313   7.672   4.955 -0.6062 -0.9658  0.9606
15863SOL    HW249031   0.422   7.674   5.060  0.0805 -0.8884  0.2531
15864SOL     OW49032   3.355   0.901  11.642  0.0164 -0.2831  0.3242
15864SOL    HW149033   3.440   0.941  11.663  0.1149 -0.2655 -0.1096
15864SOL    HW249034   3.338   0.926  11.552 -0.6736  0.1046  0.5538
15865SOL     OW49035   2.374   1.001   0.536 -0.0910 -0.1968 -0.1654
15865SOL    HW149036   2.457   0.954   0.526 -0.3841 -0.4254 -1.6688
15865SOL    HW249037   2.386   1.082   0.486 -0.6584 -0.0743 -0.1128
15866SOL     OW49038   6.240   2.611   4.985 -0.1711 -0.7219 -0.0527
15866SOL    HW149039   6.270   2.667   4.914 -1.3345 -0.6932 -0.5370
15866SOL    HW249040   6.153   2.581   4.958 -0.4573 -1.0620  1.1561
15867SOL     OW49041   5.405   0.979   4.513 -0.4566  0.3967 -0.2687
15867SOL    HW149042   5.461   0.901   4.513 -1.6188 -0.4736  0.7266
15867SOL    HW249043   5.466   1.052   4.521  0.4976 -0.5983  2.5333
15868SOL     OW49044   3.100   0.137   6.626  0.2203  0.1065 -0.0100
15868SOL    HW149045   3.149   0.061   6.658 -1.5610 -0.2906  2.0001
15868SOL    HW249046   3.017   0.102   6.597 -0.2207  1.1613 -0.0794
15869SOL     OW49047   2.963   0.023   9.697  0.1457  0.6762  0.0766
15869SOL    HW149048   3.025   0.001   9.767 -0.3963  1.0012  0.6753
15869SOL    HW249049   2.985   0.114   9.674  1.0642  0.2142 -0.9876
15870SOL     OW49050   2.034   1.697   9.780 -0.1099  0.1385 -0.2144
15870SOL    HW149051   2.014   1.776   9.828  2.2489  0.3197  0.6261
15870SOL    HW249052   2.085   1.727   9.704 -0.7659 -0.4397 -0.9055
15871SOL     OW49053   5.197   0.567  12.158 -0.0350 -0.0246  0.0171
15871SOL    HW149054   5.204   0.586  12.251 -0.1242 -0.2314  0.0671
15871SOL    HW249055   5.154   0.481  12.154 -1.4444  0.6657 -0.2504
15872SOL     OW49056   0.310   3.291   1.117  0.0919  0.2727 -0.1849
15872SOL    HW149057   0.336   3.349   1.047  1.4955 -0.0340  0.0455
15872SOL    HW249058   0.291   3.207   1.074  0.8955  0.1014 -0.2199
15873SOL     OW49059   7.662   7.851   7.365  0.1994 -0.0215 -0.2589
15873SOL    HW149060   7.618   7.934   7.346  2.1983  1.0229 -0.6071
15873SOL    HW249061   7.683   7.815   7.280  0.6981 -0.1059 -0.1044
15874SOL     OW49062   4.144   5.251   7.318  0.2403 -0.2927  0.4535
15874SOL    HW149063   4.175   5.341   7.306 -0.8957  0.1279  0.5388
15874SOL    HW249064   4.219   5.197   7.294  0.7176  0.6668 -0.3203
15875SOL     OW49065   7.327   0.574   2.645 -0.5548 -0.1740 -0.5019
15875SOL    HW149066   7.396   0.511   2.624 -0.9096 -0.4765 -0.7615
15875SOL    HW249067   7.267   0.571   2.570 -0.7367  0.2473 -0.3773
15876SOL     OW49068   3.650   1.583   4.587 -0.0887  0.0054  0.1632
15876SOL    HW149069   3.671   1.671   4.617 -0.6368 -0.3260  1.5790
15876SOL    HW249070   3.579   1.594   4.524  0.1413  0.5994  0.0059
15877SOL     OW49071   7.407   5.922   5.019  0.6161 -0.0643 -0.3045
15877SOL    HW149072   7.347   5.931   5.093 -1.0858  0.1140 -1.6604
15877SOL    HW249073   7.455   5.841   5.038 -0.4409 -0.5226  0.5604
15878SOL     OW49074   1.243   0.885   1.511 -0.0419 -0.1239  0.0112
15878SOL    HW149075   1.249   0.976   1.482  2.0651 -0.4824 -0.8138
15878SOL    HW249076   1.265   0.887   1.604  0.7089  0.1333 -0.1712
15879SOL     OW49077   0.849   7.687   1.129 -0.2100  0.1301 -0.1385
15879SOL    HW149078   0.945   7.681   1.123 -0.0681  0.9706  0.9537
15879SOL    HW249079   0.822   7.601   1.162  0.2654  0.1778  0.4028
15880SOL     OW49080   2.669   6.202   0.534  0.8360  0.1025  0.3923
15880SOL    HW149081   2.727   6.259   0.586  0.0402  0.4697  0.8863
15880SOL    HW249082   2.602   6.174   0.596  0.2094  0.0693 -0.2962
15881SOL     OW49083   7.351   5.660   0.590  0.3370 -0.0286 -0.0631
15881SOL    HW149084   7.355   5.610   0.509  1.3586 -0.9511  0.5357
15881SOL    HW249085   7.329   5.595   0.657 -1.1265  0.8222  0.3368
15882SOL     OW49086   3.580   0.859   9.208  0.1579 -0.6519  0.8855
15882SOL    HW149087   3.508   0.828   9.264 -0.7186 -1.6781 -0.7253
15882SOL    HW249088   3.610   0.780   9.162  0.1151  0.3059 -0.8626
15883SOL     OW49089   6.319   2.475   2.411  0.3328 -0.6432 -0.3444
15883SOL    HW149090   6.281   2.483   2.324  1.8489 -0.1613 -1.0068
15883SOL    HW249091   6.384   2.405   2.402  1.0183 -0.0953  0.1941
15884SOL     OW49092   6.791   5.216   9.747 -0.0221  0.0948  0.3378
15884SOL    HW149093   6.797   5.188   9.656 -1.2895 -0.1064  0.3073
15884SOL    HW249094   6.845   5.153   9.795 -0.3528 -0.5493 -0.1221
15885SOL     OW49095   3.691   3.734   7.412  0.4656  0.2192 -0.1549
15885SOL    HW149096   3.601   3.764   7.428  0.5663 -0.0996  1.1018
15885SOL    HW249097   3.737   3.812   7.381 -0.4224  0.1933 -1.6584
15886SOL     OW49098   6.388   2.659   7.534 -0.5550  0.3690  0.2572
15886SOL    HW149099   6.470   2.611   7.523 -0.6199  0.1763  0.5963
15886SOL    HW249100   6.325   2.593   7.562 -0.5169  0.7384  1.2420
15887SOL     OW49101   0.699   5.646   2.841 -0.1134 -0.2957 -0.2302
15887SOL    HW149102   0.647   5.566   2.848  2.2610 -1.9979 -0.6796
15887SOL    HW249103   0.781   5.626   2.886 -0.2887  2.7742  1.7779
15888SOL     OW49104   3.891   3.869   8.749  0.0321 -0.0484 -0.0506
15888SOL    HW149105   3.908   3.943   8.808  2.1412  0.2032 -0.8849
15888SOL    HW249106   3.801   3.882   8.720 -0.1019  1.4224  0.8959
15889SOL     OW49107   5.672   0.338   2.911  0.2800 -0.8373 -0.0481
15889SOL    HW149108   5.623   0.415   2.939  0.0511 -1.9324  2.9479
15889SOL    HW249109   5.609   0.266   2.917  1.1519 -1.6420 -0.2238
15890SOL     OW49110   2.658   4.231   0.601  0.1500 -0.4669  0.2944
15890SOL    HW149111   2.716   4.271   0.666 -0.2189  1.4923 -0.5435
15890SOL    HW249112   2.591   4.188   0.654  0.2961  0.4122  1.2342
15891SOL     OW49113   0.068   7.455   1.169 -0.0490 -0.5117  0.1176
15891SOL    HW149114  -0.011   7.402   1.157 -0.2320 -0.0081 -0.9955
15891SOL    HW249115   0.072   7.470   1.264 -1.1160 -0.8037  0.2263
15892SOL     OW49116   0.525   3.273   0.101 -0.4658  0.0266  0.0493
15892SOL    HW149117   0.564   3.198   0.057 -2.3779 -0.3851 -1.0723
15892SOL    HW249118   0.488   3.236   0.182 -1.2277 -0.2267 -0.4037
15893SOL     OW49119   7.337   1.107   3.369 -0.0056  0.4002  1.2911
15893SOL    HW149120   7.292   1.180   3.411  0.1429  0.0974  1.9882
15893SOL    HW249121   7.392   1.069   3.438 -1.3680 -1.4575  1.4367
15894SOL     OW49122   2.741   5.486   5.190  0.0489  0.0747  0.1926
15894SOL    HW149123   2.808   5.419   5.174 -0.4647 -0.5742  0.7059
15894SOL    HW249124   2.665   5.456   5.140 -0.4266 -0.1158  1.0229
15895SOL     OW49125   0.615   2.264  11.765 -0.5755 -0.6842  0.5689
15895SOL    HW149126   0.584   2.350  11.738  1.3180 -0.2727 -0.4555
15895SOL    HW249127   0.553   2.236  11.832 -0.6704  1.9339  1.6872
15896SOL     OW49128   1.592   6.492   6.328 -0.2253  0.3375  0.0515
15896SOL    HW149129   1.566   6.584   6.333 -0.3534  0.4129 -1.4237
15896SOL    HW249130   1.527   6.445   6.379 -1.4931  0.8476 -1.0464
15897SOL     OW49131   0.588   0.456   2.025 -0.4075  0.3100  0.5873
15897SOL    HW149132   0.581   0.496   2.111 -0.4011  2.6769 -0.4265
15897SOL    HW249133   0.502   0.471   1.984 -0.0066  0.4162 -0.2529
15898SOL     OW49134   7.768   3.536   1.333 -0.3168 -0.1884 -0.7631
15898SOL    HW149135   7.673   3.523   1.339 -0.4689  1.1737  2.9032
15898SOL    HW249136   7.779   3.631   1.344  1.4560 -0.3901 -0.5757
15899SOL     OW49137   4.350   6.414   3.169 -0.9321  0.2474  0.2703
15899SOL    HW149138   4.311   6.330   3.192 -0.0273 -0.0047  0.9495
15899SOL    HW249139   4.437   6.412   3.210 -0.8626  1.4711  0.2258
15900SOL     OW49140   7.195   7.551  12.266  0.1209 -0.0274  0.5739
15900SOL    HW149141   7.156   7.630  12.304 -1.1898  0.1655 -1.0401
15900SOL    HW249142   7.130   7.521  12.202  0.0911 -3.0223  1.8114
15901SOL     OW49143   2.136   4.713   8.998 -0.4314 -0.1602 -0.5287
15901SOL    HW149144   2.217   4.712   9.049 -1.7389 -0.3186  1.6662
15901SOL    HW249145   2.165   4.721   8.907  1.9398  2.3356  0.3344
15902SOL     OW49146   6.685   5.857   8.554  0.0870  0.4031 -0.3487
15902SOL    HW149147   6.621   5.833   8.621  0.6586 -1.9732 -0.5670
15902SOL    HW249148   6.770   5.832   8.591  0.6282  1.0642 -1.0982
15903SOL     OW49149   0.356   1.582   4.327  0.2746  0.1003 -0.0209
15903SOL    HW149150   0.380   1.658   4.379  0.1565 -1.0409  1.8068
15903SOL    HW249151   0.260   1.587   4.319  0.4518  1.4187 -2.0792
15904SOL     OW49152   7.596   5.675  11.059  0.3256 -0.1510 -0.5952
15904SOL    HW149153   7.623   5.706  11.145  0.1341  0.8160 -0.8631
15904SOL    HW249154   7.667   5.619  11.029  1.1710  0.8296 -0.4909
15905SOL     OW49155   1.261   0.055   4.020 -0.1853 -0.2675  0.1538
15905SOL    HW149156   1.181   0.007   4.001  0.2907 -0.8035 -0.5496
15905SOL    HW249157   1.261   0.066   4.116 -2.0778  1.5074  0.0202
15906SOL     OW49158   1.978   2.046  10.952 -0.4946  0.0683  0.4250
15906SOL    HW149159   2.035   1.997  11.011 -0.3593  2.7323  2.7378
15906SOL    HW249160   1.897   2.059  11.002 -0.8019  1.4907 -0.3941
15907SOL     OW49161   6.695   6.069   3.127 -0.1868  0.1345  0.1718
15907SOL    HW149162   6.721   6.135   3.191  0.5358  0.0825 -0.0553
15907SOL    HW249163   6.679   5.990   3.178 -0.9516  0.4503  0.4328
15908SOL     OW49164   4.871   6.549   2.402 -0.4415  0.3361  0.1175
15908SOL    HW149165   4.800   6.611   2.385 -0.6956  0.2804  0.9143
15908SOL    HW249166   4.864   6.531   2.496 -0.4430 -0.9852 -0.1179
15909SOL     OW49167   4.605   7.632   0.201 -0.6093 -0.0079 -0.0775
15909SOL    HW149168   4.685   7.680   0.222  0.6219 -0.2443 -3.4670
15909SOL    HW249169   4.568   7.680   0.127 -2.4023 -1.1725  0.0103
15910SOL     OW49170   2.296   1.842   3.038  0.2819 -0.0656 -0.6176
15910SOL    HW149171   2.390   1.823   3.042  0.1548 -0.6211 -0.1522
15910SOL    HW249172   2.292   1.937   3.022  0.9196 -0.0709 -0.8335
15911SOL     OW49173   0.137   4.085   1.133 -0.1261  0.4982 -0.0695
15911SOL    HW149174   0.225   4.066   1.165 -0.3363 -1.3936 -0.4836
15911SOL    HW249175   0.149   4.102   1.039 -0.1733  0.4261 -0.0889
15912SOL     OW49176   6.550   7.223   6.764  0.1411 -0.1908 -0.4290
15912SOL    HW149177   6.470   7.178   6.739 -0.6433 -0.1493  1.7471
15912SOL    HW249178   6.524   7.315   6.772  0.6924  0.0022 -0.7611
15913SOL     OW49179   6.511   3.503   9.085  0.2249  0.5033  0.0897
15913SOL    HW149180   6.584   3.519   9.145  0.6653 -0.3759 -0.1968
15913SOL    HW249181   6.552   3.469   9.005 -0.5443 -0.7126  0.1805
15914SOL     OW49182   5.703   7.217  11.344 -0.1245  0.5744 -0.3706
15914SOL    HW149183   5.638   7.162  11.389  0.7898  0.9644  1.5240
15914SOL    HW249184   5.651   7.286  11.302 -1.1515 -0.7850 -1.4184
15915SOL     OW49185   6.724   5.773   7.935 -0.3990  0.4167  0.1720
15915SOL    HW149186   6.638   5.782   7.976 -1.1676 -1.3657 -0.9205
15915SOL    HW249187   6.706   5.774   7.841  0.6039 -1.2192 -0.0668
15916SOL     OW49188   2.585   0.659   3.101  0.8025 -0.3112 -0.4365
15916SOL    HW149189   2.498   0.621   3.097  0.2246  0.8591  0.3727
15916SOL    HW249190   2.633   0.604   3.163 -0.0829  0.3339  0.8810
15917SOL     OW49191   7.576   1.446   0.250 -0.3382  0.6321 -0.0693
15917SOL    HW149192   7.540   1.424   0.336 -0.8800  0.5161 -0.3194
15917SOL    HW249193   7.537   1.381   0.191  0.6812  0.1865 -0.2660
15918SOL     OW49194   2.550   6.034   8.639 -0.3228 -0.2968 -0.2185
15918SOL    HW149195   2.633   6.018   8.683 -1.1662 -0.3621  1.4343
15918SOL    HW249196   2.570   6.103   8.575  1.0086 -0.3546  0.1042
15919SOL     OW49197   6.553   6.962   5.402  0.0039 -0.1573 -0.6030
15919SOL    HW149198   6.643   6.990   5.387  0.1945 -0.9409 -0.9618
15919SOL    HW249199   6.555   6.867   5.391 -0.0964 -0.7319  2.9214
15920SOL     OW49200   5.857   0.251   4.920 -0.1669 -0.0105  0.0952
15920SOL    HW149201   5.901   0.336   4.920  0.9715 -0.5849 -0.7025
15920SOL    HW249202   5.772   0.269   4.878  0.4752  0.5406 -1.0350
15921SOL     OW49203   3.724   5.703   3.301 -0.0936  0.2559  0.2672
15921SOL    HW149204   3.717   5.798   3.294  1.6717  0.4549  0.9768
15921SOL    HW249205   3.758   5.675   3.216 -3.1009 -0.0928 -0.9553
15922SOL     OW49206   4.275   1.388   6.259  0.1633  0.3191  0.0900
15922SOL    HW149207   4.337   1.406   6.329 -0.4769  1.1405  0.4542
15922SOL    HW249208   4.192   1.425   6.289 -0.3938 -0.3263 -0.6032
15923SOL     OW49209   7.033   5.428   2.270 -0.4131 -0.1618 -0.7259
15923SOL    HW149210   7.027   5.339   2.237 -0.9813 -0.6971  0.7551
15923SOL    HW249211   6.944   5.464   2.260 -0.4173 -0.0902 -0.4437
15924SOL     OW49212   0.035   0.405   0.859  0.5312  0.1159  0.1278
15924SOL    HW149213   0.053   0.451   0.777  0.3001 -1.1529 -0.6699
15924SOL    HW249214   0.121   0.377   0.890  0.6412  0.7874  0.4488
15925SOL     OW49215   1.252   2.551   5.775  0.0564  0.3475 -0.2105
15925SOL    HW149216   1.273   2.532   5.867  1.2150 -0.6293 -0.6427
15925SOL    HW249217   1.310   2.493   5.726 -1.0730  0.3132 -1.5585
15926SOL     OW49218   0.450   2.620   3.956 -0.1764 -0.1544 -0.7288
15926SOL    HW149219   0.481   2.532   3.933 -0.6939 -0.7627  0.7600
15926SOL    HW249220   0.482   2.634   4.045 -2.7929 -0.2194  0.3279
15927SOL     OW49221   3.740   0.825   6.726 -0.1877  0.1489 -0.3025
15927SOL    HW149222   3.802   0.752   6.720 -0.9814 -0.5724  0.0342
15927SOL    HW249223   3.751   0.873   6.644 -0.1051 -0.7246 -0.8178
15928SOL     OW49224   7.275   7.959  11.771 -0.3930 -0.1947 -0.0352
15928SOL    HW149225   7.295   8.049  11.746  0.5179 -0.4967 -0.4641
15928SOL    HW249226   7.358   7.912  11.757 -0.6195 -0.9288  0.9739
15929SOL     OW49227   0.810   5.624   2.567  0.1582 -0.5006 -0.1057
15929SOL    HW149228   0.777   5.648   2.654  0.6603 -0.5651  0.1036
15929SOL    HW249229   0.844   5.536   2.578  1.4886  0.0019 -0.0228
15930SOL     OW49230   2.432   2.561   9.004 -0.2547  0.4569  0.1324
15930SOL    HW149231   2.437   2.642   9.056 -0.6000  0.6297 -0.1024
15930SOL    HW249232   2.441   2.590   8.914 -0.2855  0.2220  0.0533
15931SOL     OW49233   6.680   5.683   7.031  0.4609  0.8350  0.3443
15931SOL    HW149234   6.754   5.622   7.025  0.4941  0.8956  0.1313
15931SOL    HW249235   6.719   5.770   7.018  0.2309  0.7998 -0.6713
15932SOL     OW49236   7.548   4.331  11.887 -0.3894 -0.4588 -0.1047
15932SOL    HW149237   7.497   4.306  11.810 -1.9433 -2.1114  1.3532
15932SOL    HW249238   7.595   4.251  11.912 -0.8847 -0.3462  1.3194
15933SOL     OW49239   5.743   6.756   3.886  0.0190  0.1327 -0.6736
15933SOL    HW149240   5.647   6.758   3.889  0.0179 -0.2669 -0.5032
15933SOL    HW249241   5.769   6.846   3.907 -0.2857 -0.0745  0.6791
15934SOL     OW49242   5.397   5.579   4.171  0.0496 -0.0311 -0.7696
15934SOL    HW149243   5.490   5.582   4.193 -0.1777  0.3684  0.1896
15934SOL    HW249244   5.369   5.490   4.191  0.5763 -0.6668 -2.6512
15935SOL     OW49245   7.263   4.709   0.055  0.4484  0.4403  0.3907
15935SOL    HW149246   7.252   4.614   0.052  0.8410  0.3899  0.5183
15935SOL    HW249247   7.262   4.731   0.148  0.0600  0.6012  0.3534
15936SOL     OW49248   6.132   0.608   4.271 -0.3243 -1.0538 -0.4799
15936SOL    HW149249   6.099   0.664   4.200 -2.7601 -0.0319  1.2906
15936SOL    HW249250   6.097   0.521   4.251  1.9438 -1.6518 -2.2764
15937SOL     OW49251   2.778   4.702  12.277 -0.0399  0.9045 -0.3311
15937SOL    HW149252   2.735   4.639  12.220 -1.1147  1.7312 -0.4760
15937SOL    HW249253   2.780   4.783  12.225 -1.5226  1.8217  0.9554
15938SOL     OW49254   7.430   2.434   4.632  0.3835  0.0856 -0.8876
15938SOL    HW149255   7.516   2.429   4.591  0.2311 -0.0157 -1.1959
15938SOL    HW249256   7.436   2.374   4.707  0.9718  1.0081 -0.1839
15939SOL     OW49257   0.421   7.150   2.361 -0.2501 -0.0659 -0.0969
15939SOL    HW149258   0.457   7.095   2.431 -0.1044 -0.5485 -0.5481
15939SOL    HW249259   0.448   7.107   2.280 -1.4726 -0.2072 -0.4496
15940SOL     OW49260   2.441   4.581  10.536 -0.2521 -0.6680 -0.1806
15940SOL    HW149261   2.470   4.670  10.554  1.7621 -0.9896 -1.5432
15940SOL    HW249262   2.392   4.555  10.614 -0.5187  1.4629  0.4089
15941SOL     OW49263   0.622   3.149   1.704  0.1696 -0.4082 -0.0431
15941SOL    HW149264   0.717   3.159   1.695  0.1464  0.0902  0.2560
15941SOL    HW249265   0.586   3.233   1.677  0.0381  0.9625  3.7581
15942SOL     OW49266   2.470   0.521   2.307  0.2142 -0.1361 -0.5144
15942SOL    HW149267   2.536   0.576   2.264  1.2918  0.7184  2.0445
15942SOL    HW249268   2.488   0.531   2.401 -1.8035 -2.1267  0.1668
15943SOL     OW49269   4.005   1.668  12.349  0.1003  0.3094 -0.0936
15943SOL    HW149270   3.940   1.626  12.292 -1.0762  5.0755 -2.7787
15943SOL    HW249271   4.087   1.625  12.327 -1.3613 -2.8972  0.1052
15944SOL     OW49272   1.645   0.117  11.510  0.3653 -0.0135 -0.1001
15944SOL    HW149273   1.738   0.108  11.491  0.9385  1.7867  1.4437
15944SOL    HW249274   1.642   0.164  11.594 -1.9290  0.2984 -0.2740
15945SOL     OW49275   3.487   7.730   7.407 -0.5143 -0.0737  0.1306
15945SOL    HW149276   3.484   7.775   7.492  0.8918  0.5741 -0.1367
15945SOL    HW249277   3.540   7.787   7.351  0.6039 -1.6440 -0.4796
15946SOL     OW49278   1.386   5.798  11.537 -0.2226 -0.0935  0.4085
15946SOL    HW149279   1.419   5.785  11.626 -0.9072 -0.4209  0.6153
15946SOL    HW249280   1.369   5.710  11.504  0.8015 -0.0241 -0.3546
15947SOL     OW49281   7.105   2.508   0.232 -0.3813 -0.0790 -0.4457
15947SOL    HW149282   7.169   2.550   0.175 -1.1981  1.0663 -0.5584
15947SOL    HW249283   7.073   2.433   0.181  0.9797 -0.7948 -0.3020
15948SOL     OW49284   7.053   1.187   9.146 -0.6443 -0.2865 -0.2677
15948SOL    HW149285   7.006   1.213   9.067  0.0882 -0.8396 -0.9039
15948SOL    HW249286   6.991   1.131   9.193 -1.7279  1.4311  0.4475
15949SOL     OW49287   7.209   2.490   1.885 -0.1127  0.7340  0.0659
15949SOL    HW149288   7.133   2.486   1.943  0.9044  2.1858  1.6368
15949SOL    HW249289   7.186   2.556   1.820  0.0588  1.7638  1.0138
15950SOL     OW49290   4.447   1.022   2.055  0.3126  0.1086  0.9241
15950SOL    HW149291   4.469   1.074   2.133 -0.2428  0.5418  0.7965
15950SOL    HW249292   4.362   0.984   2.075  1.1573 -1.6107  1.4414
15951SOL     OW49293   6.711   5.980  10.785 -0.3470  0.0119  0.6102
15951SOL    HW149294   6.676   5.998  10.698  2.0653  0.4511 -0.3648
15951SOL    HW249295   6.703   5.886  10.795  1.4904 -0.4053 -1.1785
15952SOL     OW49296   1.855   2.271  10.028  0.3746 -0.2463  0.5893
15952SOL    HW149297   1.949   2.270  10.013  0.3272  0.0684  0.2524
15952SOL    HW249298   1.831   2.364  10.027 -0.1060 -0.3632 -0.4540
15953SOL     OW49299   5.041   1.465   8.683 -0.3787  0.0304 -0.3623
15953SOL    HW149300   5.083   1.523   8.620  1.9045 -0.6983  0.4094
15953SOL    HW249301   4.973   1.421   8.632 -0.2411  1.2416 -1.6774
15954SOL     OW49302   7.095   2.852   5.812 -0.2833  0.1123 -0.4872
15954SOL    HW149303   7.110   2.939   5.848  1.9215 -0.5039  0.2453
15954SOL    HW249304   7.026   2.814   5.867 -0.1306  0.8132  0.1990
15955SOL     OW49305   3.160   1.031   3.474  0.2721 -1.0432  0.4866
15955SOL    HW149306   3.171   1.126   3.469 -0.1670 -1.0326 -0.8112
15955SOL    HW249307   3.103   1.017   3.549 -3.2781  0.1204 -1.7673
15956SOL     OW49308   5.961   1.747   6.581  0.2123  0.4704 -0.5357
15956SOL    HW149309   5.999   1.806   6.646  0.2239  1.6339 -1.5849
15956SOL    HW249310   5.932   1.671   6.633  4.0632 -0.6181  0.3629
15957SOL     OW49311   3.563   0.127   0.555 -0.8345 -0.0124 -0.3478
15957SOL    HW149312   3.571   0.036   0.526  0.5184  0.2338 -0.8401
15957SOL    HW249313   3.580   0.179   0.476  0.6463  0.6595  0.3756
15958SOL     OW49314   3.961   6.042   9.180  0.3210  0.1038  0.1515
15958SOL    HW149315   4.022   6.016   9.248  0.4798 -0.9486 -0.3651
15958SOL    HW249316   3.979   5.982   9.107 -0.6588  0.4068 -0.3676
15959SOL     OW49317   0.639   6.038   8.611  0.1357 -0.4374  0.2504
15959SOL    HW149318   0.568   5.979   8.635 -0.1134 -0.0995  0.3515
15959SOL    HW249319   0.664   6.079   8.693  1.0943 -1.2485  0.3871
15960SOL     OW49320   1.945   5.095  11.879  0.4644  0.0427 -0.0280
15960SOL    HW149321   1.978   5.070  11.792  3.1050  0.4121  0.7753
15960SOL    HW249322   1.957   5.190  11.882 -0.5265  0.1586  0.4001
15961SOL     OW49323   0.040   2.023   8.050 -0.1232  0.0773  0.2908
15961SOL    HW149324   0.032   1.970   7.971  0.0425  1.7686 -0.9066
15961SOL    HW249325   0.032   1.960   8.122  0.3327 -1.5866 -1.0558
15962SOL     OW49326   0.909   2.371   4.608 -0.0608  0.5179 -0.3050
15962SOL    HW149327   0.994   2.373   4.652 -0.2114  0.2913  0.0031
15962SOL    HW249328   0.858   2.438   4.654 -0.2927  0.1211  0.0196
15963SOL     OW49329   5.560   1.334   1.724  0.1098 -0.5371  0.1890
15963SOL    HW149330   5.557   1.374   1.637  0.2153 -0.9266  0.0034
15963SOL    HW249331   5.471   1.342   1.758  0.0398 -0.4950 -0.0062
15964SOL     OW49332   2.689   2.951  11.754 -0.2165  0.0623 -0.0111
15964SOL    HW149333   2.755   2.886  11.776 -1.0330 -0.4386  1.0171
15964SOL    HW249334   2.718   3.031  11.798 -0.9731 -0.5067  1.5854
15965SOL     OW49335   0.216   0.997  12.252 -0.5250  0.0295 -0.2777
15965SOL    HW149336   0.173   0.915  12.277  0.9808 -0.8952 -0.5803
15965SOL    HW249337   0.149   1.046  12.205 -0.4419 -2.6941 -3.5950
15966SOL     OW49338   7.197   1.595   0.812  0.5437 -0.0915 -0.7427
15966SOL    HW149339   7.241   1.540   0.876 -0.8664 -0.3407  0.0572
15966SOL    HW249340   7.158   1.534   0.750  0.1437  0.0616 -0.6453
15967SOL     OW49341   4.433   3.883   6.405 -0.1766  0.1314  0.1096
15967SOL    HW149342   4.352   3.847   6.369  0.5146 -0.2114 -1.1591
15967SOL    HW249343   4.415   3.893   6.499 -1.3932 -0.7017 -0.0102
15968SOL     OW49344   5.701   0.007   4.568 -0.3331 -0.4545  0.0913
15968SOL    HW149345   5.715   0.091   4.525  0.3235  0.4224  1.9322
15968SOL    HW249346   5.764  -0.052   4.527 -0.3835  0.0927 -0.7926
15969SOL     OW49347   5.628   5.393   0.130 -0.4153  0.0835  0.1103
15969SOL    HW149348   5.639   5.306   0.092 -0.1177  0.8765 -1.7189
15969SOL    HW249349   5.718   5.426   0.141 -0.5348  0.2860  0.5150
15970SOL     OW49350   3.063   7.716   5.127  0.1904  0.1774 -0.2342
15970SOL    HW149351   3.026   7.686   5.210  1.2101 -1.8248 -0.4516
15970SOL    HW249352   3.015   7.797   5.108 -1.6901 -0.5283  1.1399
15971SOL     OW49353   2.191   3.537   2.600  0.1579  0.2513  0.1323
15971SOL    HW149354   2.110   3.538   2.651  0.8072  0.9327  1.1814
15971SOL    HW249355   2.199   3.446   2.570 -0.0337 -0.2688  1.5860
15972SOL     OW49356   2.364   5.514   9.444  0.1084 -0.3108 -0.2665
15972SOL    HW149357   2.411   5.507   9.527 -0.0802  0.5796 -0.0804
15972SOL    HW249358   2.320   5.429   9.435 -0.0695 -0.3312  0.6652
15973SOL     OW49359   4.449   6.719   2.130  0.6686 -0.0822  0.1961
15973SOL    HW149360   4.367   6.670   2.122 -1.1318  2.1646  2.9591
15973SOL    HW249361   4.429   6.804   2.090  2.0632  0.0989 -0.1489
15974SOL     OW49362   4.404   1.107   4.563 -0.3914  0.1595 -0.5436
15974SOL    HW149363   4.350   1.032   4.588  0.4600 -0.5977 -0.9255
15974SOL    HW249364   4.486   1.094   4.609 -0.0633  0.6000 -0.9951
15975SOL     OW49365   5.029   6.409   7.976  0.3703 -0.0703  0.0233
15975SOL    HW149366   4.958   6.438   8.034 -0.8117 -0.0309 -1.3682
15975SOL    HW249367   4.988   6.343   7.920  1.0208  1.0260 -1.8183
15976SOL     OW49368   5.023   7.291   5.501 -0.3573 -0.4071 -0.1890
15976SOL    HW149369   5.035   7.379   5.464 -2.4751 -0.4769 -1.1764
15976SOL    HW249370   4.990   7.306   5.589 -1.5665 -0.1811 -0.6670
15977SOL     OW49371   2.697   3.158   2.093  0.1246  0.6237 -0.6922
15977SOL    HW149372   2.753   3.177   2.168  0.3577 -1.0353 -0.4034
15977SOL    HW249373   2.622   3.217   2.103  1.1976  2.0162 -0.4159
15978SOL     OW49374   0.904   1.324  11.240 -0.6506 -0.2293  0.4017
15978SOL    HW149375   0.987   1.369  11.258 -1.1987 -0.0465  2.9247
15978SOL    HW249376   0.930   1.239  11.204  0.6839 -0.2653  1.3518
15979SOL     OW49377   0.150   2.585  10.399 -0.1950  0.4734 -0.5705
15979SOL    HW149378   0.122   2.524  10.467  2.1241  0.7329  0.7125
15979SOL    HW249379   0.187   2.529  10.331  0.2563  0.3420 -0.2230
15980SOL     OW49380   7.487   6.589   6.346  0.2719 -0.5676 -0.2188
15980SOL    HW149381   7.528   6.561   6.429  0.2931 -0.4389 -0.1863
15980SOL    HW249382   7.557   6.581   6.282  0.9319  1.5074  0.1749
15981SOL     OW49383   5.258   0.455  10.480  0.1467  0.4104  0.0010
15981SOL    HW149384   5.222   0.474  10.393  0.4000  0.1505 -0.1639
15981SOL    HW249385   5.312   0.531  10.501 -1.1630  1.1901  0.6222
15982SOL     OW49386   3.173   0.215  11.012  0.4158  0.3969 -0.2366
15982SOL    HW149387   3.168   0.228  10.917  0.8390  1.1687 -0.1654
15982SOL    HW249388   3.089   0.177  11.036  0.3146  0.1774 -0.9249
15983SOL     OW49389   4.785   7.133  10.411  0.1385 -0.2365  0.1340
15983SOL    HW149390   4.720   7.109  10.477 -1.3297 -0.8310 -1.4319
15983SOL    HW249391   4.733   7.148  10.331  1.4682  3.3473 -0.2657
15984SOL     OW49392   3.649   5.343  10.825 -0.2376 -0.6062 -0.3001
15984SOL    HW149393   3.712   5.278  10.857  0.4714  0.8454  1.4395
15984SOL    HW249394   3.626   5.313  10.737  2.0189 -1.8203 -0.5518
15985SOL     OW49395   6.524   3.978   3.953 -0.2110 -0.2471 -0.5467
15985SOL    HW149396   6.440   3.951   3.915 -0.0499 -0.3896 -0.8042
15985SOL    HW249397   6.572   3.896   3.965 -0.8473 -0.3864  1.4226
15986SOL     OW49398   5.336   3.654   6.780  0.1660  0.0486 -0.3301
15986SOL    HW149399   5.398   3.582   6.797  0.0595  0.1625  0.5702
15986SOL    HW249400   5.392   3.727   6.754  0.5252  0.4238  1.3563
15987SOL     OW49401   4.346   3.503   2.525 -0.3195 -0.6798  0.2163
15987SOL    HW149402   4.342   3.435   2.592  0.4148 -0.2550  0.6924
15987SOL    HW249403   4.389   3.577   2.567 -0.7192 -0.0603 -0.4302
15988SOL     OW49404   2.697   5.499   6.823  0.3764  0.4943 -0.1652
15988SOL    HW149405   2.640   5.495   6.745  0.4536  0.2186 -0.2070
15988SOL    HW249406   2.780   5.534   6.790  1.2658 -1.9412 -0.7198
15989SOL     OW49407   6.356   5.657   3.233 -0.4781 -0.1776 -0.3069
15989SOL    HW149408   6.440   5.613   3.224  0.1047  1.0318 -1.0985
15989SOL    HW249409   6.358   5.726   3.167 -1.6138  0.6133  0.4476
15990SOL     OW49410   3.419   3.109   1.917 -0.0020  0.0916 -0.1511
15990SOL    HW149411   3.424   3.052   1.840 -0.7302 -0.0079 -0.1366
15990SOL    HW249412   3.355   3.066   1.974 -0.7884  1.0620 -0.2704
15991SOL     OW49413   6.159   0.598   5.863 -0.3298  0.5088  0.2274
15991SOL    HW149414   6.103   0.668   5.831 -1.2583  0.0354  0.7839
15991SOL    HW249415   6.155   0.606   5.958 -0.0776 -0.0248  0.2864
15992SOL     OW49416   3.070   3.137   1.899 -0.0451  0.0987  0.0320
15992SOL    HW149417   2.975   3.149   1.897  0.0530  0.8755 -1.0460
15992SOL    HW249418   3.087   3.071   1.832  0.3727  1.7904 -1.6044
15993SOL     OW49419   7.034   1.417   6.224  0.1606 -0.0989 -0.0154
15993SOL    HW149420   7.020   1.466   6.305  0.0734 -0.5323  0.2305
15993SOL    HW249421   6.988   1.334   6.236 -1.5117  0.5834 -1.2594
15994SOL     OW49422   6.028   0.728   1.190 -0.1577 -0.1084  0.3637
15994SOL    HW149423   6.008   0.757   1.279 -1.3069  0.6216 -0.1113
15994SOL    HW249424   5.945   0.735   1.143  0.0757 -1.8825 -0.4191
15995SOL     OW49425   2.680   3.498   5.327  0.0773 -0.2458 -0.1418
15995SOL    HW149426   2.693   3.403   5.328  0.7374 -0.1464  0.9387
15995SOL    HW249427   2.621   3.515   5.400 -2.3342 -0.0986 -1.9573
15996SOL     OW49428   0.135   1.057   6.489  0.1965  0.2807 -0.2301
15996SOL    HW149429   0.089   1.067   6.572 -0.2570  1.7921 -0.6252
15996SOL    HW249430   0.223   1.027   6.513 -0.4246 -0.8962  0.6547
15997SOL     OW49431   3.377   3.952   7.890 -0.4009  0.3181 -0.2367
15997SOL    HW149432   3.300   3.934   7.944 -0.1639  0.6765  0.2280
15997SOL    HW249433   3.429   3.873   7.896  0.0306  0.6537  0.7696
15998SOL     OW49434   2.130   6.288   6.876  0.1295 -0.3575  0.4015
15998SOL    HW149435   2.188   6.237   6.819  0.7292  0.3250  0.3945
15998SOL    HW249436   2.042   6.265   6.847  0.4105  1.0115 -1.7523
15999SOL     OW49437   7.377   4.312   5.107 -0.2002  0.4192 -0.3433
15999SOL    HW149438   7.385   4.408   5.107  1.6926  0.3058 -0.7627
15999SOL    HW249439   7.285   4.296   5.087  0.0049  2.1743 -3.3568
16000SOL     OW49440   5.510   0.712   4.555 -0.9333  0.2680  0.0085
16000SOL    HW149441   5.504   0.617   4.564  0.8901  0.0901 -0.1744
16000SOL    HW249442   5.579   0.725   4.489  0.3943  1.7078  1.5942
16001SOL     OW49443   7.740   2.913   9.250  0.3229  0.3525 -0.0730
16001SOL    HW149444   7.715   2.862   9.327  0.2148 -2.1161 -1.6167
16001SOL    HW249445   7.806   2.859   9.206  0.8625  1.9896 -1.3671
16002SOL     OW49446   5.982   3.960   7.790  0.3690 -0.5597  0.2210
16002SOL    HW149447   6.009   4.051   7.778 -0.1758 -0.1902  1.5359
16002SOL    HW249448   5.919   3.944   7.720  0.7619 -0.0510 -0.2557
16003SOL     OW49449   2.624   4.469   7.015 -0.2611  0.2030 -0.0485
16003SOL    HW149450   2.658   4.517   7.090  3.6987  1.9290 -2.5951
16003SOL    HW249451   2.555   4.413   7.051 -0.6730  3.0050  4.2574
16004SOL     OW49452   5.128   2.804   0.251  0.2238 -0.1193  0.1346
16004SOL    HW149453   5.196   2.742   0.278  0.5769 -0.0323 -0.5478
16004SOL    HW249454   5.148   2.824   0.160 -1.7690 -1.5413 -0.7118
16005SOL     OW49455   7.136   2.230   7.412 -0.0288  0.1113  0.0702
16005SOL    HW149456   7.141   2.152   7.356  1.4336  0.1736  0.0834
16005SOL    HW249457   7.088   2.200   7.490  0.2032 -0.6747 -0.0781
16006SOL     OW49458   1.668   4.514   9.823 -0.2336 -0.5512  0.6176
16006SOL    HW149459   1.617   4.480   9.750  0.7635 -0.1298 -0.3068
16006SOL    HW249460   1.603   4.542   9.887 -1.1500 -0.1213 -0.4766
16007SOL     OW49461   6.902   7.811   2.380 -0.5316  0.3825 -0.2468
16007SOL    HW149462   6.845   7.868   2.431 -0.8047 -0.6480  0.6231
16007SOL    HW249463   6.847   7.781   2.307 -0.2643  1.5242 -0.9486
16008SOL     OW49464   2.824   5.000  10.810 -0.4143  0.0422  0.0421
16008SOL    HW149465   2.847   5.056  10.884  0.0777 -0.0503 -0.0401
16008SOL    HW249466   2.881   4.924  10.818 -0.8487 -0.2923 -0.0388
16009SOL     OW49467   2.029   5.640   5.376 -0.1857 -0.1623 -0.7232
16009SOL    HW149468   1.996   5.612   5.291 -1.4740 -1.1032  0.0519
16009SOL    HW249469   1.951   5.670   5.423  0.1954 -1.4442  0.8033
16010SOL     OW49470   0.389   1.938   6.855 -0.2788  0.2216  0.4291
16010SOL    HW149471   0.393   1.935   6.760 -0.2856 -0.2342  0.4404
16010SOL    HW249472   0.404   2.030   6.877  0.1620  0.2553  0.0102
16011SOL     OW49473   4.417   7.291   1.571 -0.3798 -0.3366 -0.0321
16011SOL    HW149474   4.335   7.320   1.611  0.3992  0.0997  1.3030
16011SOL    HW249475   4.428   7.201   1.602  0.3793  0.1049  1.0226
16012SOL     OW49476   7.960   4.366   0.499  0.4258 -0.1074 -0.3799
16012SOL    HW149477   7.887   4.423   0.474 -0.9134 -0.9915  1.3570
16012SOL    HW249478   8.021   4.424   0.544 -0.9159  0.0324  1.3525
16013SOL     OW49479   0.592   3.420   4.549  0.1478  1.0640 -0.5870
16013SOL    HW149480   0.668   3.362   4.546 -0.5154  0.0899  0.4406
16013SOL    HW249481   0.615   3.493   4.492  1.9074  0.8736 -0.1702
16014SOL     OW49482   7.143   3.894   7.239 -0.3490 -0.6285 -0.0119
16014SOL    HW149483   7.203   3.960   7.207 -0.7280 -0.6025 -0.6848
16014SOL    HW249484   7.057   3.936   7.238 -0.2256 -0.2449  2.1477
16015SOL     OW49485   1.535   2.113   8.195 -0.4291  0.0386  0.2516
16015SOL    HW149486   1.599   2.171   8.236 -1.0736  0.7484  0.2795
16015SOL    HW249487   1.576   2.027   8.195  0.8761  0.6281 -0.4756
16016SOL     OW49488   5.669   0.827   3.060  0.9323 -0.6077  0.2315
16016SOL    HW149489   5.746   0.858   3.108 -0.1121  1.1388  0.8931
16016SOL    HW249490   5.699   0.817   2.970  1.5562  1.7503  0.1179
16017SOL     OW49491   1.103   2.194   8.837 -0.1182  0.0111 -0.3402
16017SOL    HW149492   1.112   2.099   8.844  0.5781  0.1528  1.1683
16017SOL    HW249493   1.011   2.209   8.815 -0.5920 -0.9807  0.8451
16018SOL     OW49494   3.718   7.896   4.522 -0.1042  0.3662 -0.2723
16018SOL    HW149495   3.727   7.991   4.520  0.5795  0.2986 -1.1265
16018SOL    HW249496   3.791   7.866   4.576 -1.4382  0.4165  1.6509
16019SOL     OW49497   0.599   5.552   8.583 -0.2756 -0.4497 -0.6228
16019SOL    HW149498   0.559   5.467   8.569  1.1001 -1.3981  0.8252
16019SOL    HW249499   0.655   5.566   8.507 -1.3692 -0.2869 -1.4119
16020SOL     OW49500   4.595   0.602   1.549  0.2005 -0.6889 -0.1932
16020SOL    HW149501   4.517   0.593   1.494  0.0989 -0.6635 -0.0530
16020SOL    HW249502   4.656   0.536   1.515  0.7457  0.3876 -1.3656
16021SOL     OW49503   0.316   2.340   1.192 -0.1901 -0.2889 -0.9168
16021SOL    HW149504   0.294   2.286   1.268 -1.0253 -0.8556 -1.5408
16021SOL    HW249505   0.398   2.382   1.216 -0.4290 -0.4670  0.2907
16022SOL     OW49506   7.208   7.264   3.439 -0.4284  0.0318  0.3668
16022SOL    HW149507   7.200   7.222   3.353  1.4789 -0.4228  0.3556
16022SOL    HW249508   7.239   7.352   3.420 -0.8107  0.2109  0.5614
16023SOL     OW49509   0.413   7.267   2.861  0.2351 -0.0954 -0.3500
16023SOL    HW149510   0.320   7.286   2.875 -0.1435 -0.8561 -1.6947
16023SOL    HW249511   0.443   7.336   2.802  1.0855  1.3718  1.6819
16024SOL     OW49512   7.080   3.010   0.442  0.0833 -0.7257  0.0735
16024SOL    HW149513   7.034   3.041   0.363  0.0915  0.5368  0.5368
16024SOL    HW249514   7.155   2.963   0.408  0.4029  0.2974 -0.7007
16025SOL     OW49515   4.769   6.696   5.089  0.4167  0.0838 -0.3935
16025SOL    HW149516   4.742   6.695   5.181  1.2791  0.1062 -0.1294
16025SOL    HW249517   4.728   6.618   5.051 -0.3486  0.3465 -0.1155
16026SOL     OW49518   2.505   1.860  12.025  0.3622  0.4965  0.2398
16026SOL    HW149519   2.448   1.874  11.950  1.4898  1.6149 -0.4432
16026SOL    HW249520   2.580   1.813  11.990  0.2036 -0.3524  0.9932
16027SOL     OW49521   1.650   1.996   0.775 -0.1195  0.4148 -0.7076
16027SOL    HW149522   1.729   1.984   0.722  0.7287 -0.1625  0.6376
16027SOL    HW249523   1.660   1.934   0.847 -1.5987  0.6508 -0.2771
16028SOL     OW49524   0.770   3.681   5.601 -0.6882 -0.0648 -0.1775
16028SOL    HW149525   0.780   3.646   5.689  1.2277  0.6437 -0.0698
16028SOL    HW249526   0.837   3.749   5.594 -0.6998 -0.2029 -2.2340
16029SOL     OW49527   4.501   3.871   2.347 -0.0481  0.3091  0.0418
16029SOL    HW149528   4.412   3.847   2.372 -1.2890  0.8274 -3.2450
16029SOL    HW249529   4.547   3.788   2.337 -1.0059 -0.1500 -0.7384
16030SOL     OW49530   0.424   1.561   8.020 -0.4197 -0.1280  0.1563
16030SOL    HW149531   0.471   1.508   8.085  1.0134  0.7438 -0.1333
16030SOL    HW249532   0.430   1.650   8.053 -0.6931  0.1720 -0.5815
16031SOL     OW49533   6.160   2.526   2.166  0.4156 -0.5912  0.1459
16031SOL    HW149534   6.114   2.589   2.110 -0.9821 -2.8136 -1.3471
16031SOL    HW249535   6.244   2.512   2.123  0.3166 -0.5170 -0.0698
16032SOL     OW49536   4.278   4.186   9.302  0.6743  0.4018 -0.7746
16032SOL    HW149537   4.201   4.146   9.261  0.4144  1.3989 -1.2923
16032SOL    HW249538   4.298   4.129   9.376  0.0939 -0.4710 -1.2728
16033SOL     OW49539   4.998   6.620  12.264 -0.6169  0.3393  0.5999
16033SOL    HW149540   4.997   6.530  12.231  0.8616  0.6312 -0.3067
16033SOL    HW249541   4.909   6.652  12.249 -0.9715 -0.7451  0.3107
16034SOL     OW49542   4.368   7.224  12.120  0.2088 -0.3429 -0.3158
16034SOL    HW149543   4.419   7.286  12.066 -1.1049  0.2154 -0.9542
16034SOL    HW249544   4.355   7.148  12.064  3.1788 -1.9841  0.9935
16035SOL     OW49545   7.293   1.100   6.935  0.3205 -0.6593 -0.5962
16035SOL    HW149546   7.332   1.107   6.848 -0.3247 -0.9921 -0.9220
16035SOL    HW249547   7.349   1.154   6.991  1.3759 -1.3135 -0.9952
16036SOL     OW49548   1.692   1.351   3.854 -0.0491 -0.3282 -0.5757
16036SOL    HW149549   1.623   1.352   3.788  0.5080  0.3307 -1.1636
16036SOL    HW249550   1.703   1.443   3.879  0.4835 -0.4438 -0.3583
16037SOL     OW49551   3.361   0.011   3.955 -0.6305 -0.4018 -0.0695
16037SOL    HW149552   3.421  -0.011   4.026 -0.6870 -0.1725  0.0500
16037SOL    HW249553   3.299   0.073   3.994 -0.8579 -0.5251 -0.2308
16038SOL     OW49554   2.689   5.018   4.148 -0.1550  0.1574 -0.2345
16038SOL    HW149555   2.625   4.978   4.089 -2.0417 -0.0896  1.8616
16038SOL    HW249556   2.770   5.019   4.098 -0.8246 -3.1654 -1.6498
16039SOL     OW49557   1.233   6.613   6.870  0.1001 -0.2806  0.2859
16039SOL    HW149558   1.158   6.560   6.842 -0.3225  0.4597  0.0168
16039SOL    HW249559   1.252   6.581   6.958 -2.2898  1.3647  1.5078
16040SOL     OW49560   7.836   7.619   6.305  0.6723 -0.1604 -0.0023
16040SOL    HW149561   7.772   7.628   6.375  1.1023  0.9034  0.2757
16040SOL    HW249562   7.906   7.565   6.342  0.1440 -0.9660 -0.1652
16041SOL     OW49563   0.210   0.692   1.982  0.2087 -0.4587 -0.1661
16041SOL    HW149564   0.162   0.769   2.009  0.9987 -0.2786  0.7717
16041SOL    HW249565   0.300   0.707   2.012  0.8016 -0.9162 -1.6031
16042SOL     OW49566   5.477   7.811   1.235 -0.2095 -0.2896  0.0057
16042SOL    HW149567   5.384   7.818   1.255  0.0666  1.4661  0.9047
16042SOL    HW249568   5.519   7.799   1.320  0.5859  1.9309 -0.0175
16043SOL     OW49569   5.658   7.086  12.077 -0.2664  0.1888 -0.2405
16043SOL    HW149570   5.655   7.017  12.142  1.1774  1.0030  0.7340
16043SOL    HW249571   5.725   7.058  12.015 -1.5985 -0.5595 -1.4148
16044SOL     OW49572   4.966   5.272   8.070 -0.6879 -0.4238  0.1826
16044SOL    HW149573   4.995   5.181   8.067 -0.7258 -0.4517  0.5450
16044SOL    HW249574   5.006   5.313   7.994 -0.7794 -0.7753 -0.0594
16045SOL     OW49575   0.301   0.209   3.946 -0.2782  0.4181  0.5136
16045SOL    HW149576   0.394   0.187   3.957 -0.0280  1.0578 -0.2321
16045SOL    HW249577   0.261   0.187   4.030  0.2771 -1.2386  0.3812
16046SOL     OW49578   3.555   4.914   7.156 -0.1134 -0.1858 -0.5066
16046SOL    HW149579   3.535   4.825   7.127 -0.3253 -0.1211 -0.5614
16046SOL    HW249580   3.469   4.954   7.171 -0.0739  0.4369 -1.7833
16047SOL     OW49581   7.097   1.353   9.884 -0.2825 -0.3903 -0.0862
16047SOL    HW149582   7.091   1.425   9.822 -0.2289  0.7737  1.2175
16047SOL    HW249583   7.051   1.384   9.962  0.0631 -1.6159  0.6347
16048SOL     OW49584   6.962   7.831   6.911  0.5425  0.3650 -0.2255
16048SOL    HW149585   6.886   7.773   6.910  0.6631  0.1184  1.2578
16048SOL    HW249586   6.929   7.913   6.948  1.0500  0.1435  0.7526
16049SOL     OW49587   6.060   1.272   1.191  0.6111 -0.5526 -0.2407
16049SOL    HW149588   6.120   1.219   1.244 -0.5964 -0.4144  1.3195
16049SOL    HW249589   5.976   1.227   1.197 -0.0549  0.6495 -0.2619
16050SOL     OW49590   7.616   5.127   8.508  0.3329 -0.4378 -0.0637
16050SOL    HW149591   7.544   5.113   8.447  0.3528  2.1647 -0.7858
16050SOL    HW249592   7.681   5.061   8.484 -1.3055 -2.1629 -0.0715
16051SOL     OW49593   4.893   4.815   3.524 -0.0452 -0.6392 -0.0399
16051SOL    HW149594   4.812   4.862   3.545  0.2389 -0.6506  1.1634
16051SOL    HW249595   4.956   4.884   3.502 -0.3365 -0.6227 -0.8455
16052SOL     OW49596   6.225   6.871   2.703  0.0349  0.1524 -0.3466
16052SOL    HW149597   6.265   6.791   2.668  1.1062  0.3806  0.3072
16052SOL    HW249598   6.257   6.940   2.644  1.3477  0.4527  0.6671
16053SOL     OW49599   1.191   2.973   2.178  0.3446  0.5308 -0.6510
16053SOL    HW149600   1.258   2.905   2.185  0.4915  0.6485 -0.8784
16053SOL    HW249601   1.132   2.957   2.251  1.1743  1.0390  0.1651
16054SOL     OW49602   3.957   5.507   1.531  0.1969 -0.3621 -0.4277
16054SOL    HW149603   3.893   5.552   1.477  0.4719  0.0282 -0.4326
16054SOL    HW249604   4.022   5.574   1.553 -0.0164 -0.4673  0.5533
16055SOL     OW49605   3.002   6.611   0.199 -0.5484 -0.4375 -0.4923
16055SOL    HW149606   3.072   6.551   0.174  1.1721  1.6315 -0.9745
16055SOL    HW249607   2.974   6.580   0.285 -0.0869 -2.2045 -0.9391
16056SOL     OW49608   3.253   4.597   2.736 -0.0593  0.3504 -0.2518
16056SOL    HW149609   3.216   4.555   2.814 -1.8182  0.9478 -0.7298
16056SOL    HW249610   3.271   4.525   2.676  0.8797 -0.0708  0.5113
16057SOL     OW49611   1.343   5.215   7.805 -0.6369 -0.3109  0.3538
16057SOL    HW149612   1.389   5.132   7.815 -0.2271 -0.4513 -2.0795
16057SOL    HW249613   1.252   5.195   7.829  0.1889 -0.3374  3.9418
16058SOL     OW49614   6.867   7.026  10.347  0.4086  0.4592  0.2908
16058SOL    HW149615   6.854   6.972  10.425 -2.4590 -0.2019 -0.5125
16058SOL    HW249616   6.798   6.998  10.287  1.6792  1.8977 -1.9682
16059SOL     OW49617   5.869   4.722   5.953 -0.5317 -0.1288  0.7133
16059SOL    HW149618   5.870   4.757   6.042 -1.2246  0.5801  0.4491
16059SOL    HW249619   5.797   4.659   5.953 -0.8145  0.1941  0.5343
16060SOL     OW49620   6.413   3.369   4.493  0.4546  0.2299  0.2533
16060SOL    HW149621   6.336   3.387   4.439  0.7558  0.4213 -0.1169
16060SOL    HW249622   6.378   3.353   4.580 -0.0293  0.0321  0.0247
16061SOL     OW49623   1.551   2.237   3.766  0.0475  0.4110  0.0754
16061SOL    HW149624   1.599   2.223   3.684  0.3125  0.3231  0.2433
16061SOL    HW249625   1.492   2.162   3.772  0.3990  0.1419  0.2219
16062SOL     OW49626   1.919   4.467   3.328  0.2939 -0.0613 -0.5873
16062SOL    HW149627   1.978   4.512   3.388  1.4391 -1.7343 -0.4025
16062SOL    HW249628   1.910   4.379   3.365  2.3350 -1.7237 -3.6155
16063SOL     OW49629   5.607   7.886   3.436  0.0832 -0.2701 -0.1634
16063SOL    HW149630   5.659   7.940   3.495  1.1025 -0.5877 -0.7321
16063SOL    HW249631   5.530   7.860   3.487  0.3114  0.5039  0.5867
16064SOL     OW49632   0.301   0.548   2.605  0.2189 -0.1572  0.2531
16064SOL    HW149633   0.323   0.641   2.598  1.0885 -0.1001  2.7685
16064SOL    HW249634   0.315   0.513   2.517  2.8242  1.5126 -0.1012
16065SOL     OW49635   2.798   5.485   0.524  0.1420 -0.4451 -0.4317
16065SOL    HW149636   2.829   5.396   0.509  0.0369 -0.3776 -1.0604
16065SOL    HW249637   2.740   5.503   0.450 -1.1528 -0.4522  0.5453
16066SOL     OW49638   6.096   5.541   4.082  0.1164  0.4578  0.3559
16066SOL    HW149639   6.065   5.529   3.992 -1.4574  1.3920  0.7246
16066SOL    HW249640   6.050   5.473   4.132  0.1574  0.6151  0.6091
16067SOL     OW49641   7.515   3.799   6.858 -0.1164  0.0474 -0.4426
16067SOL    HW149642   7.552   3.744   6.927  1.0252  1.6265  0.2699
16067SOL    HW249643   7.430   3.826   6.893 -0.4263 -0.7630 -0.5444
16068SOL     OW49644   7.611   4.835  12.163  0.0825 -0.0556  0.6248
16068SOL    HW149645   7.696   4.814  12.122 -0.1941 -0.1622  0.1021
16068SOL    HW249646   7.610   4.782  12.243  0.3878 -0.2772  0.4863
16069SOL     OW49647   1.779   4.923   2.416 -0.5494  0.0666  0.0600
16069SOL    HW149648   1.874   4.914   2.426 -0.4939  0.5569  0.0321
16069SOL    HW249649   1.763   4.903   2.323 -0.4684  0.0182  0.0563
16070SOL     OW49650   4.310   2.537   6.703  0.3062  0.4979  1.0390
16070SOL    HW149651   4.349   2.465   6.653 -2.0189 -0.5687  0.5935
16070SOL    HW249652   4.236   2.566   6.649  0.1391  2.0299  2.0463
16071SOL     OW49653   6.144   0.613   3.405  0.3270 -0.2356 -0.6485
16071SOL    HW149654   6.067   0.562   3.430  1.3072 -2.2517 -1.5094
16071SOL    HW249655   6.210   0.593   3.472  0.1670  1.4322  0.0576
16072SOL     OW49656   2.864   2.782  11.895  0.6235 -0.3111 -0.0324
16072SOL    HW149657   2.926   2.781  11.968 -0.0141 -0.0741  0.5364
16072SOL    HW249658   2.847   2.690  11.877  1.3292 -0.3796 -0.3641
16073SOL     OW49659   3.196   3.577  12.126  0.5801 -0.1349  0.4637
16073SOL    HW149660   3.279   3.537  12.149  1.4569  0.0549 -2.0839
16073SOL    HW249661   3.205   3.668  12.153  0.4920 -0.4812  1.7392
16074SOL     OW49662   4.381   3.804  10.277  0.5652 -0.1320  0.0488
16074SOL    HW149663   4.371   3.884  10.227 -1.6558 -1.1710 -1.3174
16074SOL    HW249664   4.462   3.816  10.327  0.4344  2.7979 -0.3147
16075SOL     OW49665   1.154   6.152  12.432 -0.2086  0.6292 -0.2567
16075SOL    HW149666   1.138   6.058  12.442  0.5011  0.5490  0.2537
16075SOL    HW249667   1.122   6.173  12.344  0.4341 -0.2758 -0.7290
16076SOL     OW49668   1.091   7.615   9.786  1.0008 -0.8897 -0.3080
16076SOL    HW149669   1.045   7.543   9.830 -0.8523  0.7914  0.6754
16076SOL    HW249670   1.168   7.631   9.842  0.7346 -1.2468  0.1743
16077SOL     OW49671   2.481   7.666   3.908  0.2621 -0.2196  0.4113
16077SOL    HW149672   2.439   7.702   3.986 -1.1771  2.2173 -1.3511
16077SOL    HW249673   2.563   7.715   3.901 -0.5092  0.9738 -0.6031
16078SOL     OW49674   0.769   5.736  12.299  0.1380 -0.3046  0.0523
16078SOL    HW149675   0.697   5.730  12.236  0.7597  0.9301 -0.8398
16078SOL    HW249676   0.819   5.656  12.286  0.2951 -0.0353 -1.0908
16079SOL     OW49677   5.684   5.737   3.639  0.7235  0.0548  0.2416
16079SOL    HW149678   5.683   5.645   3.668 -0.3605 -0.1462 -0.3847
16079SOL    HW249679   5.745   5.780   3.699  1.4049 -1.1104  0.4225
16080SOL     OW49680   3.634   6.379   2.484 -0.1247  0.7012 -0.4057
16080SOL    HW149681   3.587   6.296   2.481 -1.3660  1.3460  0.2194
16080SOL    HW249682   3.685   6.375   2.565 -1.2576  1.0707  0.3531
16081SOL     OW49683   4.891   4.323   1.838 -0.1086  0.0445 -0.2406
16081SOL    HW149684   4.850   4.257   1.892  1.5003 -0.2155  0.7444
16081SOL    HW249685   4.858   4.307   1.750 -1.2601 -0.7806  0.3207
16082SOL     OW49686   6.967   6.163   6.333  0.0239 -0.5697 -0.4197
16082SOL    HW149687   6.890   6.200   6.290 -0.3505 -1.2196 -0.3153
16082SOL    HW249688   7.029   6.236   6.336 -0.2544 -0.2733 -1.2887
16083SOL     OW49689   6.500   0.525  11.271  0.3136 -0.4310 -0.1553
16083SOL    HW149690   6.563   0.514  11.342  0.4933 -2.5174 -0.5777
16083SOL    HW249691   6.416   0.538  11.315  0.5912 -0.6005  0.4327
16084SOL     OW49692   3.779   7.824  12.099 -0.6904  0.5939  0.1808
16084SOL    HW149693   3.861   7.791  12.137 -0.3224 -0.1670 -1.2009
16084SOL    HW249694   3.807   7.895  12.041 -1.1916  1.3933  0.8931
16085SOL     OW49695   0.614   2.442   7.501 -0.4019 -0.1514 -0.4873
16085SOL    HW149696   0.609   2.488   7.417 -1.6542 -1.1827 -1.0189
16085SOL    HW249697   0.635   2.510   7.565  1.2730  0.5323 -1.7180
16086SOL     OW49698   5.292   5.634   1.680  0.8062 -0.1702  0.2332
16086SOL    HW149699   5.267   5.670   1.595  0.9251 -0.0970  0.2293
16086SOL    HW249700   5.290   5.539   1.668  2.4929 -0.1725 -0.3509
16087SOL     OW49701   0.841   5.973   0.233  0.6245 -0.0810  0.0522
16087SOL    HW149702   0.777   5.942   0.297 -0.3259  0.9690 -0.3516
16087SOL    HW249703   0.926   5.957   0.275  0.0284  0.5597  1.5882
16088SOL     OW49704   5.987   1.722   1.250 -0.3982  0.8747 -0.2829
16088SOL    HW149705   6.014   1.649   1.194 -1.1837 -0.5939  1.1822
16088SOL    HW249706   6.055   1.727   1.318  0.0238  1.9988 -0.7599
16089SOL     OW49707   0.747   5.026   0.811  0.3436 -0.1574 -0.2494
16089SOL    HW149708   0.708   5.107   0.845  1.1733 -0.3695  1.2486
16089SOL    HW249709   0.782   5.051   0.725  1.4236  1.3419  0.5820
16090SOL     OW49710   7.943   7.553  10.143 -0.2898  0.0316  0.2138
16090SOL    HW149711   7.882   7.575  10.072  0.7011  2.4880  0.0125
16090SOL    HW249712   8.015   7.507  10.100 -0.4591  0.0727 -0.1169
16091SOL     OW49713   4.011   1.667   3.237 -0.1932 -0.4077 -0.5380
16091SOL    HW149714   3.937   1.724   3.258 -0.5056 -1.6047  1.9025
16091SOL    HW249715   3.972   1.593   3.191 -0.2253 -0.1466 -0.9365
16092SOL     OW49716   7.359   5.461   4.823  1.0411 -0.2653  0.0774
16092SOL    HW149717   7.331   5.442   4.912  1.1989  0.7719  0.3519
16092SOL    HW249718   7.451   5.487   4.832  0.4868  1.8986 -0.1082
16093SOL     OW49719   0.945   6.431   8.052  0.3064 -0.3087 -0.5312
16093SOL    HW149720   0.913   6.367   7.988 -0.0597 -2.0474  1.3020
16093SOL    HW249721   0.878   6.432   8.120  1.0364  0.9539  0.1926
16094SOL     OW49722   7.111   1.049  11.446 -0.1977 -0.1034  0.2444
16094SOL    HW149723   7.160   1.046  11.529 -1.9460  0.6764  1.3664
16094SOL    HW249724   7.155   1.116  11.395  0.8705 -0.5405  0.5423
16095SOL     OW49725   6.553   0.674   7.539 -0.0629 -0.6058 -0.1745
16095SOL    HW149726   6.588   0.590   7.569  0.0410 -0.8268 -0.9039
16095SOL    HW249727   6.522   0.657   7.451  1.6843  0.5568 -1.0844
16096SOL     OW49728   2.287   6.396   0.049  0.0001  0.4228 -0.1859
16096SOL    HW149729   2.299   6.472  -0.009  1.4983  0.7360  0.4804
16096SOL    HW249730   2.241   6.431   0.125  0.4924  0.6367  0.0215
16097SOL     OW49731   3.662   4.400   6.036 -0.0439 -0.2224  0.0840
16097SOL    HW149732   3.632   4.420   6.124  0.4193  1.6267 -0.1413
16097SOL    HW249733   3.758   4.410   6.040 -0.1743  2.7911 -1.2062
16098SOL     OW49734   4.723   3.317   0.292  0.2022 -0.5486 -0.1931
16098SOL    HW149735   4.700   3.342   0.381  1.6753 -1.0281  0.3515
16098SOL    HW249736   4.813   3.347   0.280  0.2001 -0.9218 -1.3547
16099SOL     OW49737   3.501   5.893  11.818  0.5650 -0.8470 -0.4901
16099SOL    HW149738   3.417   5.932  11.794  0.7471  0.5548  0.9474
16099SOL    HW249739   3.531   5.945  11.893  2.0943 -2.1492 -0.1364
16100SOL     OW49740   4.032   4.663  11.166 -0.0661  0.0452  0.2121
16100SOL    HW149741   4.118   4.678  11.126 -0.2637  0.4934 -0.0596
16100SOL    HW249742   3.986   4.747  11.154  0.1259  0.4449  2.0106
16101SOL     OW49743   0.316   5.821   2.668 -0.5119 -0.6821  0.1781
16101SOL    HW149744   0.319   5.814   2.573  1.2935 -0.6666  0.2012
16101SOL    HW249745   0.318   5.730   2.699  1.5536 -0.6695  0.2017
16102SOL     OW49746   7.818   4.294  12.380  0.6077 -0.2153 -0.1574
16102SOL    HW149747   7.892   4.340  12.338 -0.2406  1.6127  0.2263
16102SOL    HW249748   7.753   4.285  12.309  1.1816 -1.8755 -0.5113
16103SOL     OW49749   0.668   6.935   8.029 -0.0272 -0.5368 -0.3795
16103SOL    HW149750   0.712   6.987   7.962  0.4275 -1.0578 -0.4899
16103SOL    HW249751   0.724   6.945   8.107 -0.7905  0.4385  0.0716
16104SOL     OW49752   4.013   1.662   9.137 -0.1302  0.5731  0.2897
16104SOL    HW149753   3.946   1.670   9.204 -0.6130  0.2020 -0.1465
16104SOL    HW249754   4.033   1.752   9.111 -2.5056  0.6627 -1.6004
16105SOL     OW49755   6.305   3.504   9.974  0.5841  0.0647  0.1312
16105SOL    HW149756   6.305   3.560  10.052 -1.1754  0.9918 -0.4958
16105SOL    HW249757   6.348   3.558   9.907  1.5004 -0.4852  0.2527
16106SOL     OW49758   6.268   7.587   7.290 -0.0669  0.5096  0.0077
16106SOL    HW149759   6.361   7.566   7.285 -0.0822  0.4841 -0.1772
16106SOL    HW249760   6.263   7.680   7.269 -0.0495  0.5857  0.3438
16107SOL     OW49761   5.044   3.987  10.846  0.3113  0.5013  0.3859
16107SOL    HW149762   5.120   3.948  10.891  0.0162  0.5857  0.9759
16107SOL    HW249763   4.973   3.980  10.910 -0.4488 -0.5029 -0.5221
16108SOL     OW49764   6.340   0.182   7.397 -0.0911  0.4573  0.3678
16108SOL    HW149765   6.400   0.108   7.407 -1.3921 -0.4531  1.8528
16108SOL    HW249766   6.334   0.220   7.485 -2.3889 -0.0782  0.5106
16109SOL     OW49767   5.775   3.833   5.593  0.7451 -0.0539 -0.0776
16109SOL    HW149768   5.681   3.848   5.601  0.8308  0.2801  0.3863
16109SOL    HW249769   5.796   3.775   5.666  0.6141 -1.5580 -1.1994
16110SOL     OW49770   7.407   1.466   4.866  0.0372 -0.1428  0.9220
16110SOL    HW149771   7.492   1.483   4.906 -0.5952  0.2451  2.1677
16110SOL    HW249772   7.385   1.548   4.821  0.0047  0.0152  1.2203
16111SOL     OW49773   6.688   0.981   7.356  0.1272  0.1745  0.8107
16111SOL    HW149774   6.685   0.903   7.300  2.0935  0.8397 -0.3083
16111SOL    HW249775   6.677   0.946   7.445  0.4917 -1.3400  0.2939
16112SOL     OW49776   3.616   2.687   8.626  0.3434  0.4254  0.1598
16112SOL    HW149777   3.686   2.630   8.595 -0.2093 -0.4205  0.4177
16112SOL    HW249778   3.579   2.725   8.546  0.1732 -0.2495 -0.0997
16113SOL     OW49779   3.654   0.544   0.008 -0.5192  0.1879  0.2512
16113SOL    HW149780   3.725   0.529  -0.055 -0.2862 -0.3229  0.6310
16113SOL    HW249781   3.699   0.560   0.091 -0.8500 -0.3505  0.5393
16114SOL     OW49782   5.451   1.585   6.541  0.0509  0.7014  0.0899
16114SOL    HW149783   5.416   1.532   6.469 -0.0078  0.0744  0.5817
16114SOL    HW249784   5.442   1.530   6.618  0.5479  1.2003  0.5051
16115SOL     OW49785   3.766   3.059   1.533  0.4847  0.7628 -0.5203
16115SOL    HW149786   3.773   3.010   1.615  0.1573 -1.7282 -1.9047
16115SOL    HW249787   3.678   3.096   1.535 -0.4976 -1.3979 -0.7906
16116SOL     OW49788   7.950   6.162   4.649 -0.1372  0.2904  0.0563
16116SOL    HW149789   7.860   6.128   4.642 -0.5878  1.4692 -0.2215
16116SOL    HW249790   7.954   6.232   4.583  0.7681  0.7110  0.5377
16117SOL     OW49791   0.809   3.358   4.864 -0.3127  0.2543  0.0743
16117SOL    HW149792   0.878   3.419   4.838  0.2224  0.1133  1.1217
16117SOL    HW249793   0.728   3.400   4.835  0.1216  0.9979 -0.0809
16118SOL     OW49794   0.024   2.978   7.830  0.0846 -0.1964  0.7212
16118SOL    HW149795   0.025   2.886   7.803 -1.0434  0.1359 -0.5347
16118SOL    HW249796   0.081   3.022   7.766  0.2690  0.0600  1.0588
16119SOL     OW49797   6.421   2.489   6.648  0.1524 -0.4038  0.0094
16119SOL    HW149798   6.454   2.400   6.659  2.5379  0.5247  0.9592
16119SOL    HW249799   6.430   2.507   6.554  1.1248 -0.6470  0.0474
16120SOL     OW49800   5.842   7.603   6.056  0.6260  0.4558  0.0982
16120SOL    HW149801   5.859   7.604   5.962 -1.3567  1.3312 -0.3122
16120SOL    HW249802   5.800   7.518   6.071  3.0271 -0.7046  0.6785
16121SOL     OW49803   6.949   1.923   0.728 -0.4581  1.1392  0.0781
16121SOL    HW149804   6.910   1.900   0.644 -2.0760  1.0974  0.8131
16121SOL    HW249805   6.898   1.874   0.793  2.5967 -1.2630  0.9681
16122SOL     OW49806   5.508   7.562   4.636  0.2441  0.0557  0.2989
16122SOL    HW149807   5.430   7.549   4.691  0.1052 -2.0730 -0.3337
16122SOL    HW249808   5.576   7.590   4.698 -0.8958  1.6845  0.9048
16123SOL     OW49809   4.008   7.396   5.466 -0.2017 -0.2572 -0.4211
16123SOL    HW149810   4.023   7.485   5.433  1.2023 -1.4250 -3.3049
16123SOL    HW249811   3.929   7.367   5.420 -0.4211 -0.6726  0.1990
16124SOL     OW49812   4.134   0.035   8.640  0.0714  0.0663 -0.2359
16124SOL    HW149813   4.216   0.066   8.677  0.1690  0.8457 -1.0719
16124SOL    HW249814   4.114  -0.045   8.689  1.4757 -0.3056 -0.2206
16125SOL     OW49815   4.448   5.653   5.013  0.8633 -0.6781  0.2104
16125SOL    HW149816   4.412   5.566   5.028  2.4275 -1.3162  0.5231
16125SOL    HW249817   4.507   5.642   4.938 -0.3687  0.5716 -1.0043
16126SOL     OW49818   5.788   5.945   5.989  0.0989 -0.1956 -0.0777
16126SOL    HW149819   5.713   5.885   5.990 -0.0832  0.0084  1.2586
16126SOL    HW249820   5.762   6.016   6.048  1.6341 -0.5168  1.0525
16127SOL     OW49821   3.109   6.164   3.546 -0.7670  0.0873  0.3398
16127SOL    HW149822   3.166   6.147   3.472 -1.3482 -1.3707  0.2015
16127SOL    HW249823   3.150   6.118   3.620 -1.1864 -0.0669  0.4812
16128SOL     OW49824   5.269   5.790   4.418 -0.0042 -0.1248  0.0013
16128SOL    HW149825   5.336   5.851   4.450 -0.5447  0.5322 -0.1051
16128SOL    HW249826   5.243   5.825   4.333 -1.1699  0.1723  0.4719
16129SOL     OW49827   2.658   7.673   9.323 -0.4950 -0.2235 -0.0090
16129SOL    HW149828   2.726   7.736   9.347  0.1796 -1.7965  2.6276
16129SOL    HW249829   2.645   7.686   9.229  2.0199  1.4719 -0.2238
16130SOL     OW49830   1.372   2.526   0.500  0.3984  0.4905  0.4350
16130SOL    HW149831   1.451   2.559   0.543  0.7654  1.3622 -0.8467
16130SOL    HW249832   1.343   2.599   0.445  0.0677 -0.6329 -0.9294
16131SOL     OW49833   5.056   3.887   1.268  0.3679  0.3712  0.2362
16131SOL    HW149834   5.073   3.819   1.203  1.1791  1.5525 -0.8201
16131SOL    HW249835   5.051   3.968   1.218 -0.1889  1.1593  1.5185
16132SOL     OW49836   6.102   4.758   5.803 -0.9148 -0.0252  0.2016
16132SOL    HW149837   6.187   4.728   5.838 -0.5225  2.8431  2.0197
16132SOL    HW249838   6.038   4.725   5.866 -0.8550  0.1223  0.3398
16133SOL     OW49839   6.617   5.868   7.444  0.1816 -0.2170  0.1320
16133SOL    HW149840   6.533   5.838   7.477  0.0760  1.2703  1.3418
16133SOL    HW249841   6.682   5.815   7.491 -0.0319  0.4434  1.1928
16134SOL     OW49842   4.309   4.840   7.350 -0.1547  0.1361 -0.0731
16134SOL    HW149843   4.310   4.799   7.263 -1.1410 -3.2270  1.3373
16134SOL    HW249844   4.370   4.788   7.401  0.1312  1.8238  1.3690
16135SOL     OW49845   5.395   6.168   6.741 -0.4014 -0.5224 -0.1774
16135SOL    HW149846   5.354   6.234   6.796 -1.3644 -0.8149 -0.5302
16135SOL    HW249847   5.348   6.172   6.658  0.5123 -0.6308 -0.7193
16136SOL     OW49848   7.637   4.916  11.611  0.3936  0.1721  0.1611
16136SOL    HW149849   7.588   4.964  11.677  0.0153  2.0193 -1.3886
16136SOL    HW249850   7.586   4.835  11.598  1.1707 -0.8904  2.9624
16137SOL     OW49851   0.522   3.760   9.666 -0.6345  0.4451 -0.2900
16137SOL    HW149852   0.479   3.703   9.603  0.3202 -0.0633 -0.5059
16137SOL    HW249853   0.456   3.775   9.734 -1.4426  0.4507 -1.0683
16138SOL     OW49854   0.077   2.795   1.180 -0.3823 -0.3586 -0.1470
16138SOL    HW149855   0.089   2.726   1.115  1.5048  0.1081 -0.3629
16138SOL    HW249856   0.165   2.813   1.213 -0.9769  1.0979  0.7803
16139SOL     OW49857   0.645   7.564   0.565 -0.4649 -0.4431 -0.2336
16139SOL    HW149858   0.616   7.473   0.562 -0.1831 -0.5231 -0.6034
16139SOL    HW249859   0.713   7.565   0.632 -0.4171 -0.5252 -0.2791
16140SOL     OW49860   7.167   0.206   4.427  0.2745  0.4964  0.7092
16140SOL    HW149861   7.199   0.162   4.506  0.8369 -0.3869  0.0059
16140SOL    HW249862   7.244   0.254   4.395 -0.1514  1.4558  1.0911
16141SOL     OW49863   2.342   4.035   0.077  0.1396  0.0927  0.4190
16141SOL    HW149864   2.296   4.086   0.010 -0.3325  0.3439  0.9189
16141SOL    HW249865   2.429   4.019   0.040 -0.2923 -0.2306 -0.4627
16142SOL     OW49866   3.408   0.847   1.147  0.8156  0.4581  0.0811
16142SOL    HW149867   3.381   0.815   1.233 -0.6265  1.2918 -0.0472
16142SOL    HW249868   3.353   0.798   1.085  1.7023  0.0101 -0.3781
16143SOL     OW49869   3.954   5.085   9.985 -0.1198 -0.2736  0.4985
16143SOL    HW149870   4.006   5.135   9.922 -0.5229 -0.8007 -0.2612
16143SOL    HW249871   4.000   5.001   9.993 -0.2666 -0.3400  0.6331
16144SOL     OW49872   7.486   0.081   8.960  0.0923 -0.4066 -0.2308
16144SOL    HW149873   7.401   0.072   9.002  0.0311  0.5616 -0.1156
16144SOL    HW249874   7.547   0.097   9.032  0.3449 -0.8750 -0.3324
16145SOL     OW49875   5.862   1.839   3.780 -0.5146  0.7215 -0.0911
16145SOL    HW149876   5.865   1.763   3.723 -0.0613 -0.1324  1.0303
16145SOL    HW249877   5.777   1.880   3.763 -1.0778 -0.4589 -0.1640
16146SOL     OW49878   6.621   6.687   5.133  0.0412 -0.5496  0.1153
16146SOL    HW149879   6.690   6.738   5.092 -0.7533  0.4347 -0.0229
16146SOL    HW249880   6.559   6.668   5.062 -0.8337  0.3072  0.6142
16147SOL     OW49881   7.705   2.999   8.576 -0.2209 -0.1522  0.3318
16147SOL    HW149882   7.690   2.957   8.661 -0.2608 -1.2826 -0.2092
16147SOL    HW249883   7.624   3.046   8.557  0.3425  1.4474  1.6163
16148SOL     OW49884   3.778   0.879   5.094  0.4451  0.3312  0.4185
16148SOL    HW149885   3.685   0.895   5.110  0.4561  1.0574 -0.1832
16148SOL    HW249886   3.820   0.890   5.179 -0.3248 -2.6609  1.3124
16149SOL     OW49887   6.862   4.584   4.819  0.0672  0.5909 -0.2995
16149SOL    HW149888   6.863   4.504   4.871  0.2311  1.2055  0.6763
16149SOL    HW249889   6.773   4.618   4.827  0.4747  1.4589  0.8342
16150SOL     OW49890   3.855   2.268   5.028 -0.9628 -0.1576  0.4477
16150SOL    HW149891   3.771   2.229   5.005 -0.0546 -1.7466 -0.2720
16150SOL    HW249892   3.900   2.280   4.945 -0.3725  0.4595  0.8449
16151SOL     OW49893   5.352   7.815  11.313  0.2100  0.4456 -0.2839
16151SOL    HW149894   5.441   7.847  11.300  0.2588  0.3095 -0.2889
16151SOL    HW249895   5.309   7.829  11.228 -0.2995  2.1441  0.2164
16152SOL     OW49896   6.825   4.170   6.982 -0.4191 -0.2343  0.1254
16152SOL    HW149897   6.852   4.256   7.014 -1.7056  0.1787  0.1637
16152SOL    HW249898   6.866   4.162   6.896 -0.6668  0.6360 -0.0863
16153SOL     OW49899   5.686   1.548  11.713 -0.0459  0.1208 -0.5263
16153SOL    HW149900   5.611   1.499  11.680 -1.6000  1.4542  0.8493
16153SOL    HW249901   5.749   1.481  11.740 -1.3536 -1.0699 -0.3408
16154SOL     OW49902   2.294   2.127  11.409  0.2817 -0.4012 -0.0699
16154SOL    HW149903   2.293   2.151  11.316  2.7259  0.7207  0.1141
16154SOL    HW249904   2.330   2.038  11.409 -0.5363 -0.7453 -0.2148
16155SOL     OW49905   3.124   6.581   6.124 -0.0797 -0.4405  1.1790
16155SOL    HW149906   3.123   6.605   6.031 -1.5849 -1.1008  0.9899
16155SOL    HW249907   3.149   6.662   6.169 -2.3777  0.8412  0.3726
16156SOL     OW49908   5.960   4.423   0.068 -0.0579  0.2081 -0.3977
16156SOL    HW149909   5.961   4.351   0.131  0.0811  1.0306  0.5874
16156SOL    HW249910   5.987   4.499   0.120 -1.3403  1.1895 -1.1230
16157SOL     OW49911   7.084   7.146   5.890  0.2177  0.3743 -0.8167
16157SOL    HW149912   7.107   7.178   5.978 -0.6794  0.8700 -0.7508
16157SOL    HW249913   7.111   7.216   5.831  0.3891  0.2433 -0.8954
16158SOL     OW49914   1.187   3.604   8.114  0.4444  0.0404  0.1886
16158SOL    HW149915   1.270   3.651   8.119  0.7868 -0.5864  4.0356
16158SOL    HW249916   1.213   3.512   8.107 -0.0711 -0.0106 -1.4399
16159SOL     OW49917   4.084   3.211   4.198  0.2065  0.0219  0.0448
16159SOL    HW149918   4.112   3.122   4.218  0.3419  0.1081  0.2457
16159SOL    HW249919   4.166   3.260   4.187  0.1799  0.5208  1.7260
16160SOL     OW49920   2.281   4.203   4.196  0.0022 -0.4868 -0.0532
16160SOL    HW149921   2.331   4.175   4.120 -0.9481 -0.4856 -0.7017
16160SOL    HW249922   2.304   4.141   4.265  0.1615 -1.0594 -0.6186
16161SOL     OW49923   4.808   2.009   3.886  0.3264  0.0227  0.2433
16161SOL    HW149924   4.728   1.989   3.934  0.9244 -1.2958  0.7414
16161SOL    HW249925   4.873   2.026   3.954  0.8374 -0.4486 -0.1198
16162SOL     OW49926   1.487   0.277   4.892 -1.0363 -0.1718 -0.1078
16162SOL    HW149927   1.399   0.291   4.928 -0.6611 -0.2580  0.8652
16162SOL    HW249928   1.471   0.249   4.801 -1.9899  0.2981 -0.1020
16163SOL     OW49929   1.189   2.680   1.537 -0.9872  0.0137  0.0029
16163SOL    HW149930   1.249   2.629   1.482 -1.0942  1.1177 -1.1652
16163SOL    HW249931   1.104   2.637   1.526 -0.4855 -1.5082  1.6013
16164SOL     OW49932   2.235   5.793   4.218  0.4477  0.0015  0.4949
16164SOL    HW149933   2.223   5.732   4.146  0.2573  0.1061  0.4366
16164SOL    HW249934   2.217   5.741   4.297 -1.0052  0.2852  0.3905
16165SOL     OW49935   0.367   0.851  11.331  0.4270  0.4904  0.9924
16165SOL    HW149936   0.434   0.825  11.394  1.1245  2.0126  0.9171
16165SOL    HW249937   0.394   0.808  11.249  0.4281 -0.1687  1.3320
16166SOL     OW49938   7.104   4.751   2.493 -0.2078 -0.1441 -0.7768
16166SOL    HW149939   7.055   4.727   2.572  2.5298  1.9025  1.8081
16166SOL    HW249940   7.151   4.671   2.469 -0.2176 -0.5135  0.3857
16167SOL     OW49941   0.523   2.131   5.402  0.1903 -0.6527 -0.2799
16167SOL    HW149942   0.555   2.181   5.327  1.6399  0.5225  1.0525
16167SOL    HW249943   0.599   2.121   5.458 -1.1874 -0.0569  1.8011
16168SOL     OW49944   0.952   4.874   0.663 -0.1449  0.7242  0.2595
16168SOL    HW149945   0.949   4.785   0.700  0.0383  0.2808 -0.7536
16168SOL    HW249946   0.925   4.863   0.572  1.7711  1.3907 -0.4495
16169SOL     OW49947   7.883   0.867  11.998  0.0046  0.1703 -0.8978
16169SOL    HW149948   7.940   0.926  11.949 -1.0535  0.3339 -1.9715
16169SOL    HW249949   7.822   0.925  12.044  0.4769 -0.0173 -0.0009
16170SOL     OW49950   3.773   7.835   1.596  0.6228  0.1284  0.0203
16170SOL    HW149951   3.786   7.822   1.502  0.8856  1.2784 -0.1207
16170SOL    HW249952   3.684   7.807   1.613  0.8714 -0.9328 -0.4030
16171SOL     OW49953   4.625   3.275   1.663  0.4997  0.5157  0.0762
16171SOL    HW149954   4.699   3.313   1.615  0.1989  0.7648 -0.1952
16171SOL    HW249955   4.569   3.237   1.595 -0.2710  1.4621  0.1535
16172SOL     OW49956   3.547   3.582   8.189  1.1287  0.5905 -0.0729
16172SOL    HW149957   3.474   3.521   8.197  1.9801 -0.1921  3.7315
16172SOL    HW249958   3.620   3.528   8.157  0.5166  1.0537 -2.4431
16173SOL     OW49959   7.117   1.131   5.886 -0.3938  0.2298  0.4910
16173SOL    HW149960   7.107   1.072   5.961 -0.0588  0.4616  0.7171
16173SOL    HW249961   7.100   1.218   5.921 -0.4977  0.3121  0.2387
16174SOL     OW49962   2.415   4.830  10.017  0.4960 -0.6889 -0.3268
16174SOL    HW149963   2.426   4.735  10.025 -1.0910 -0.9582 -0.9788
16174SOL    HW249964   2.486   4.857   9.958 -1.0410 -2.0440 -2.9928
16175SOL     OW49965   2.161   1.800   0.943  0.0044  0.1996  0.3692
16175SOL    HW149966   2.247   1.798   0.903 -0.8335  0.0556 -1.5066
16175SOL    HW249967   2.159   1.881   0.994  1.1980  0.2421  0.3630
16176SOL     OW49968   6.788   3.309  11.828 -0.6235  0.0580  0.2024
16176SOL    HW149969   6.753   3.270  11.748  1.7396  1.3969 -1.6310
16176SOL    HW249970   6.790   3.237  11.890 -2.2926 -1.1143 -1.0033
16177SOL     OW49971   6.765   6.690   4.805  0.3593  0.3235 -0.3683
16177SOL    HW149972   6.681   6.669   4.847  0.4006 -1.0921 -0.9163
16177SOL    HW249973   6.793   6.607   4.765  2.5945  0.4514  0.7735
16178SOL     OW49974   1.660   3.283  10.707  0.0988 -0.1882  0.0294
16178SOL    HW149975   1.729   3.236  10.753  1.4962  1.2535 -0.4710
16178SOL    HW249976   1.589   3.220  10.698  0.9879 -1.4487  1.3755
16179SOL     OW49977   5.715   6.915   3.182  0.0528  0.2167 -0.5046
16179SOL    HW149978   5.795   6.885   3.226 -0.5560  0.8727  1.1212
16179SOL    HW249979   5.715   7.010   3.195 -1.4431  0.1310  0.3293
16180SOL     OW49980   3.017   2.236  11.331 -0.0968 -0.0862 -0.3465
16180SOL    HW149981   2.936   2.265  11.372 -0.4127  0.5052 -1.3718
16180SOL    HW249982   3.086   2.260  11.393 -0.5999  0.4718 -0.0046
16181SOL     OW49983   3.190   4.911   1.803 -0.5403 -0.2181 -0.4290
16181SOL    HW149984   3.229   4.823   1.807 -0.1585 -0.0797 -0.9643
16181SOL    HW249985   3.203   4.946   1.891  1.1906  0.0752 -0.7677
16182SOL     OW49986   4.666   2.576   6.556 -0.1344  0.3513  0.6110
16182SOL    HW149987   4.618   2.581   6.473 -0.1980  0.9030  0.6801
16182SOL    HW249988   4.667   2.483   6.577 -0.5735  0.2612  0.2545
16183SOL     OW49989   4.982   3.399   3.816 -0.2226  0.3996  0.1530
16183SOL    HW149990   5.004   3.306   3.817 -1.8799 -0.0777 -1.7225
16183SOL    HW249991   4.906   3.407   3.873 -1.2840  0.2151 -1.1932
16184SOL     OW49992   6.764   6.608  12.426 -0.2051 -0.0266 -0.9109
16184SOL    HW149993   6.839   6.607  12.487  0.7834 -4.9619 -1.7506
16184SOL    HW249994   6.792   6.666  12.355  2.3912 -0.7792 -0.6180
16185SOL     OW49995   4.875   0.899   1.793  0.6625  0.0763 -0.3983
16185SOL    HW149996   4.809   0.856   1.739  0.0185 -1.8094  1.7206
16185SOL    HW249997   4.933   0.943   1.731 -0.9268 -0.6276 -2.4793
16186SOL     OW49998   1.880   4.435  10.184  0.2268 -0.2888  0.6948
16186SOL    HW149999   1.883   4.387  10.267 -0.9663 -3.0507 -0.7031
16186SOL    HW250000   1.972   4.445  10.159  0.6555  1.3999  2.7049
16187SOL     OW50001   3.235   5.408   5.335  0.0501 -0.0602 -0.2027
16187SOL    HW150002   3.220   5.475   5.268 -0.4210 -0.4119 -0.4537
16187SOL    HW250003   3.151   5.398   5.380  0.5881  0.8236  1.0658
16188SOL     OW50004   4.984   4.833  11.877  0.1344  0.3339  0.0180
16188SOL    HW150005   4.974   4.843  11.782 -0.4317  1.7649  0.1927
16188SOL    HW250006   4.900   4.862  11.913 -0.0763 -1.2677  0.9297
16189SOL     OW50007   5.589   5.554   8.810  0.0112  0.0107  0.6274
16189SOL    HW150008   5.551   5.582   8.894 -1.5076  0.4517 -0.1789
16189SOL    HW250009   5.600   5.459   8.820 -0.0464  0.0709  1.3601
16190SOL     OW50010   2.127   3.659   1.016  0.1437  0.4541 -0.0098
16190SOL    HW150011   2.058   3.668   1.082 -0.0055  0.4829 -0.1693
16190SOL    HW250012   2.197   3.612   1.061 -0.1655  0.0156  0.0160
16191SOL     OW50013   4.433   7.000   4.762  0.3656 -0.1669  0.4955
16191SOL    HW150014   4.508   7.008   4.821  2.0590 -0.1579 -1.5236
16191SOL    HW250015   4.356   7.001   4.819  1.7360  2.4069  2.5100
16192SOL     OW50016   2.436   3.273  10.391 -0.1548 -0.3279 -0.3160
16192SOL    HW150017   2.506   3.339  10.391 -0.1349 -0.3447  0.0422
16192SOL    HW250018   2.451   3.223  10.312 -0.2333  0.1660 -0.6502
16193SOL     OW50019   3.969   4.315   6.250  0.0146  0.1654 -0.3182
16193SOL    HW150020   3.945   4.361   6.169  1.2425  0.2591 -0.6454
16193SOL    HW250021   3.990   4.385   6.312  1.6595  0.0913 -0.7450
16194SOL     OW50022   1.008   7.078   4.495 -0.1816  0.1500  0.2635
16194SOL    HW150023   1.050   7.020   4.431  0.1892  1.0078 -0.2917
16194SOL    HW250024   1.044   7.165   4.476 -1.2084  0.6814  0.6589
16195SOL     OW50025   7.533   2.347   6.179 -0.2885  0.1559 -0.7320
16195SOL    HW150026   7.474   2.286   6.134 -1.6555 -0.0042  1.1624
16195SOL    HW250027   7.611   2.295   6.197 -0.5493 -0.3699 -1.0748
16196SOL     OW50028   4.998   6.052  11.079 -0.2302  0.3695 -0.0100
16196SOL    HW150029   5.054   5.975  11.090 -1.0571 -0.1890  0.3500
16196SOL    HW250030   5.048   6.110  11.020  1.1809  0.3479  1.1117
16197SOL     OW50031   5.021   0.594   9.014  0.0430 -0.0557  0.3530
16197SOL    HW150032   5.067   0.677   9.024  0.8103 -0.3965 -0.2674
16197SOL    HW250033   5.055   0.538   9.084 -1.4085  0.5373  1.5852
16198SOL     OW50034   7.026   1.183   6.843 -0.0084 -0.4100  0.3537
16198SOL    HW150035   7.080   1.130   6.902 -0.5652  0.2569  1.4805
16198SOL    HW250036   7.090   1.233   6.792  0.5196 -1.8309 -0.4712
16199SOL     OW50037   3.524   4.314  12.124 -0.0136  0.1911  0.8262
16199SOL    HW150038   3.433   4.288  12.133 -0.3116  0.9459  0.1171
16199SOL    HW250039   3.533   4.391  12.180  0.8173 -1.2179  2.7746
16200SOL     OW50040   2.038   5.075   5.103 -0.1481  0.1246 -0.5516
16200SOL    HW150041   2.089   5.001   5.071 -0.8251 -0.9409  0.7632
16200SOL    HW250042   2.027   5.059   5.197 -1.1600  1.3779 -0.4245
16201SOL     OW50043   6.572   4.653   0.364  0.4924 -0.1741 -0.3410
16201SOL    HW150044   6.596   4.562   0.345  1.2455 -0.3095  1.0711
16201SOL    HW250045   6.612   4.671   0.449 -0.8555  1.0259  0.0931
16202SOL     OW50046   7.463   5.940   3.541  0.5304 -0.5344 -0.0598
16202SOL    HW150047   7.555   5.938   3.566  0.2342 -1.5724  1.0500
16202SOL    HW250048   7.464   5.953   3.446  1.8418 -1.3200 -0.1753
16203SOL     OW50049   6.064   3.595   6.455 -0.0470 -0.4705  0.2905
16203SOL    HW150050   6.152   3.569   6.429 -0.0429  0.2564 -0.4462
16203SOL    HW250051   6.016   3.604   6.373 -0.7246 -0.5490  0.6705
16204SOL     OW50052   1.206   6.940   0.190  0.5988  0.3308  0.5915
16204SOL    HW150053   1.144   7.012   0.178  0.4050  0.0501 -0.2102
16204SOL    HW250054   1.253   6.961   0.270 -0.2908  0.7323  1.0236
16205SOL     OW50055   7.744   5.318   5.838 -0.3795 -0.2161  0.5439
16205SOL    HW150056   7.689   5.261   5.892 -1.5025 -0.0477 -0.3827
16205SOL    HW250057   7.720   5.407   5.863 -1.8228 -0.1106 -1.0532
16206SOL     OW50058   5.787   3.229   6.454 -0.6560 -0.1821  0.7803
16206SOL    HW150059   5.779   3.197   6.364 -3.0945 -1.4107  1.3392
16206SOL    HW250060   5.842   3.307   6.447 -0.8068 -0.2226 -1.7809
16207SOL     OW50061   0.121   3.480   6.803 -0.2623  0.4015 -0.1862
16207SOL    HW150062   0.203   3.472   6.852 -2.4450 -2.2470  3.5309
16207SOL    HW250063   0.131   3.418   6.730  1.6051  1.5007 -0.9503
16208SOL     OW50064   5.142   4.360   6.464  0.5584  0.4606  0.2900
16208SOL    HW150065   5.180   4.362   6.376 -0.0810 -0.0306 -0.0074
16208SOL    HW250066   5.093   4.442   6.471  0.4661  0.4204  0.1208
16209SOL     OW50067   4.142   7.238   2.289  0.3494  0.1084  0.1384
16209SOL    HW150068   4.089   7.231   2.369 -0.2266  0.8892 -0.1610
16209SOL    HW250069   4.221   7.285   2.317  1.3853 -1.9274  0.8033
16210SOL     OW50070   7.804   0.971   7.453  0.5660 -0.0015 -0.0847
16210SOL    HW150071   7.774   0.891   7.496 -0.1387  0.3109  0.0225
16210SOL    HW250072   7.894   0.983   7.484 -0.1088  0.5514  1.8303
16211SOL     OW50073   5.381   5.806  10.843 -0.0093 -0.0788 -0.0509
16211SOL    HW150074   5.366   5.846  10.757 -2.3704  0.5096  0.5570
16211SOL    HW250075   5.352   5.716  10.832  0.3625 -0.1985 -0.0525
16212SOL     OW50076   7.313   0.694  10.434  0.9967 -0.4890 -0.2607
16212SOL    HW150077   7.357   0.664  10.355  1.1401 -1.0294  0.0174
16212SOL    HW250078   7.243   0.752  10.403  1.0541 -0.6945 -0.7786
16213SOL     OW50079   2.633   4.283  12.107  0.1734  0.1591 -0.0169
16213SOL    HW150080   2.677   4.302  12.190 -0.8939 -1.2282  0.9133
16213SOL    HW250081   2.561   4.225  12.130 -1.4538  1.3961 -1.6427
16214SOL     OW50082   7.831   7.249   6.455  0.3012  0.2736  0.1076
16214SOL    HW150083   7.828   7.217   6.545 -0.1348 -1.3272 -0.4345
16214SOL    HW250084   7.897   7.318   6.456  0.4338  0.1542  1.6109
16215SOL     OW50085   4.359   3.190  12.005  0.0383  0.6598  0.8097
16215SOL    HW150086   4.338   3.238  11.925 -0.3923 -0.1657  0.4134
16215SOL    HW250087   4.451   3.165  11.994  0.0280  0.6919  0.6412
16216SOL     OW50088   1.820   0.824   3.266 -0.2166  0.4513 -0.3136
16216SOL    HW150089   1.731   0.849   3.240 -0.4498  0.2541  0.2718
16216SOL    HW250090   1.866   0.906   3.280 -0.1830  0.5570 -1.0307
16217SOL     OW50091   1.153   0.965   8.833 -0.5054 -0.2919 -0.2227
16217SOL    HW150092   1.103   1.035   8.793  0.2636 -0.7908 -2.1599
16217SOL    HW250093   1.091   0.922   8.892 -1.8696  0.1308 -1.2977
16218SOL     OW50094   0.976   1.482   0.944  0.6754 -0.0896  0.4407
16218SOL    HW150095   0.903   1.427   0.915  0.4622  0.4602 -0.0856
16218SOL    HW250096   1.048   1.462   0.884  0.3856  0.6914 -0.1855
16219SOL     OW50097   0.654   4.199   4.658  0.2968 -0.3057  0.0128
16219SOL    HW150098   0.737   4.239   4.633 -0.0013  0.6600  0.5300
16219SOL    HW250099   0.599   4.209   4.580 -0.2675  1.6989  0.6080
16220SOL     OW50100   5.568   2.365   4.389 -0.8328 -0.1850 -0.4101
16220SOL    HW150101   5.623   2.315   4.329 -0.8827 -0.7229 -0.0181
16220SOL    HW250102   5.613   2.358   4.474 -0.5101  0.9588 -0.4740
16221SOL     OW50103   6.955   4.053  11.833 -0.5246  0.0453  0.2803
16221SOL    HW150104   7.046   4.026  11.839 -0.4327 -0.4695 -2.3970
16221SOL    HW250105   6.910   3.998  11.898  1.0030  0.2678  1.5916
16222SOL     OW50106   0.680   2.211  11.487  0.1013 -0.1266 -0.4770
16222SOL    HW150107   0.770   2.244  11.490  0.5512 -1.2422 -1.2070
16222SOL    HW250108   0.652   2.208  11.578  1.0150 -0.3115 -0.1958
16223SOL     OW50109   7.798   1.408  11.940 -0.0285 -0.0145 -0.1146
16223SOL    HW150110   7.873   1.416  11.881  1.7230 -2.8075  1.5422
16223SOL    HW250111   7.722   1.415  11.883  1.4407  1.9777 -2.0006
16224SOL     OW50112   4.598   6.292   8.092 -0.3417  0.4582 -0.1265
16224SOL    HW150113   4.662   6.261   8.027 -0.9414 -0.2878 -0.3766
16224SOL    HW250114   4.581   6.215   8.147 -0.0616  1.0040  0.7436
16225SOL     OW50115   1.279   7.072  11.296 -0.3228 -0.3728  0.0089
16225SOL    HW150116   1.253   7.134  11.228 -0.7596 -3.5683 -3.0432
16225SOL    HW250117   1.200   7.020  11.312  0.2200 -0.6946  1.8504
16226SOL     OW50118   7.364   3.314   6.521 -0.4559 -0.3378 -0.0820
16226SOL    HW150119   7.338   3.229   6.484 -0.0678 -0.1828 -0.7320
16226SOL    HW250120   7.456   3.302   6.544 -0.5092 -0.2159  0.1958
16227SOL     OW50121   0.953   1.085   2.023 -0.1365  0.1848  0.0253
16227SOL    HW150122   0.930   1.017   1.959  0.3058 -1.2855  1.3682
16227SOL    HW250123   1.024   1.046   2.074  1.5485  2.4425 -0.4296
16228SOL     OW50124   6.435   4.112   7.565  0.1273 -0.0959 -0.1454
16228SOL    HW150125   6.390   4.177   7.619 -0.9452 -0.8905 -0.0606
16228SOL    HW250126   6.386   4.112   7.483 -0.4844 -1.4815  0.2029
16229SOL     OW50127   5.798   1.188   8.215 -0.4422  0.4078 -0.1119
16229SOL    HW150128   5.877   1.209   8.264  0.3223  0.3467 -1.2706
16229SOL    HW250129   5.728   1.237   8.258  0.2750  0.6882  0.7509
16230SOL     OW50130   5.009   5.855   2.436  0.5000  0.8461  0.6665
16230SOL    HW150131   5.023   5.939   2.393 -0.6754  0.9438  0.4374
16230SOL    HW250132   5.052   5.791   2.379 -1.7473  0.8696 -1.1878
16231SOL     OW50133   2.995   4.485  10.030 -0.7235  0.1664 -0.4524
16231SOL    HW150134   3.011   4.564  10.082  2.2881 -0.1518 -0.7047
16231SOL    HW250135   2.920   4.444  10.072 -0.5579  1.6809  1.5023
16232SOL     OW50136   7.251   3.370   7.510  0.3402  0.1884  0.3188
16232SOL    HW150137   7.162   3.405   7.520  0.6038  0.9103  0.1468
16232SOL    HW250138   7.253   3.334   7.422  0.3831  0.6659  0.1211
16233SOL     OW50139   1.128   6.520  10.335 -0.1389 -0.3860 -0.2400
16233SOL    HW150140   1.194   6.466  10.380 -0.7780 -0.3239  0.8002
16233SOL    HW250141   1.051   6.463  10.329  0.1332 -0.6152 -1.8607
16234SOL     OW50142   6.365   3.300   9.204  0.3524 -0.1957  0.2302
16234SOL    HW150143   6.398   3.374   9.153  0.7217 -0.5942 -0.1038
16234SOL    HW250144   6.278   3.283   9.168  1.7811 -2.4922 -2.4420
16235SOL     OW50145   2.902   1.817   7.123  0.4145  0.2993 -0.1011
16235SOL    HW150146   2.905   1.911   7.144 -1.7029  0.7897 -1.6231
16235SOL    HW250147   2.988   1.798   7.086  0.4510  1.9773 -0.9711
16236SOL     OW50148   5.326   7.009   3.801  0.5238 -0.0970 -0.7125
16236SOL    HW150149   5.257   7.074   3.808  1.3834  0.7589  0.0766
16236SOL    HW250150   5.288   6.939   3.748 -1.5787 -0.4669  1.1271
16237SOL     OW50151   6.480   7.829   1.740 -0.1811 -0.2766  0.6004
16237SOL    HW150152   6.543   7.894   1.771  0.8205 -0.8840 -0.1024
16237SOL    HW250153   6.394   7.871   1.752  0.2903  0.2960  2.2261
16238SOL     OW50154   4.505   6.329   3.939 -0.0976  0.4881  0.3476
16238SOL    HW150155   4.505   6.353   4.032  1.0454  1.9241  0.0152
16238SOL    HW250156   4.447   6.253   3.934 -0.5189  0.6393  2.1619
16239SOL     OW50157   0.350   1.033  11.709 -0.3036  0.6067 -0.7176
16239SOL    HW150158   0.392   0.954  11.674  0.4445  0.3128  0.7585
16239SOL    HW250159   0.416   1.102  11.695 -1.6428  1.4440 -3.6613
16240SOL     OW50160   2.130   4.444   7.482  0.7221  0.6641 -0.1707
16240SOL    HW150161   2.135   4.404   7.569 -3.4403  0.2421  0.0790
16240SOL    HW250162   2.178   4.384   7.426  0.7948 -0.7925  1.3635
16241SOL     OW50163   0.269   0.867   4.554 -0.0485 -0.2510 -0.0661
16241SOL    HW150164   0.217   0.948   4.557 -0.2294 -0.3702 -0.0106
16241SOL    HW250165   0.332   0.882   4.483 -0.5866 -0.3713 -0.5769
16242SOL     OW50166   3.487   5.299  11.055  0.4281  0.1120  0.0270
16242SOL    HW150167   3.399   5.297  11.018 -0.1899  3.2794  1.1018
16242SOL    HW250168   3.540   5.343  10.989  0.6029  0.5996  0.4873
16243SOL     OW50169   6.301   1.630   9.323 -0.6371 -0.1671  0.3976
16243SOL    HW150170   6.353   1.557   9.356 -0.0640  0.3014  0.5547
16243SOL    HW250171   6.210   1.601   9.330 -0.3710 -1.2646 -0.5244
16244SOL     OW50172   2.086   2.351   7.048  0.0490 -0.0364 -0.1244
16244SOL    HW150173   2.168   2.310   7.075  0.4050 -0.1749 -1.3722
16244SOL    HW250174   2.089   2.439   7.086 -0.3870 -0.8480  1.9608
16245SOL     OW50175   4.403   7.776   9.136 -0.0361  0.1083 -0.2045
16245SOL    HW150176   4.456   7.848   9.103  0.4792 -0.4843 -0.6813
16245SOL    HW250177   4.424   7.702   9.079 -0.1456 -0.5657  0.6089
16246SOL     OW50178   7.149   2.893   3.071 -0.1011  0.5634 -0.0564
16246SOL    HW150179   7.182   2.981   3.052 -0.1772  1.0579  1.9015
16246SOL    HW250180   7.124   2.858   2.985  1.1501  1.9339 -1.0357
16247SOL     OW50181   6.771   1.617   4.604  0.2688 -0.2549  0.2096
16247SOL    HW150182   6.824   1.608   4.683  0.7488  1.1738  0.0805
16247SOL    HW250183   6.702   1.679   4.629 -0.2070 -0.6240 -0.1791
16248SOL     OW50184   7.039   0.591   0.265  0.2765  0.2887 -0.3133
16248SOL    HW150185   7.120   0.584   0.215  1.2500  1.4588  1.0348
16248SOL    HW250186   7.061   0.647   0.340 -0.8688 -2.0720  1.9406
16249SOL     OW50187   6.390   6.558   1.638  0.1874 -0.0456 -0.2221
16249SOL    HW150188   6.352   6.518   1.560  1.3792 -2.3861  0.3035
16249SOL    HW250189   6.321   6.555   1.703  0.5533 -2.3688  0.1246
16250SOL     OW50190   3.724   6.153   3.979  0.2226 -1.2856  0.1507
16250SOL    HW150191   3.781   6.141   4.055  0.5434 -0.5847  0.0297
16250SOL    HW250192   3.640   6.117   4.007  0.0717 -0.2088  1.1905
16251SOL     OW50193   6.907   5.983   9.609  0.7738 -0.3710  0.4458
16251SOL    HW150194   6.958   5.984   9.527  0.1092 -0.2142  0.0284
16251SOL    HW250195   6.956   6.040   9.668  1.4582 -0.7729  0.2839
16252SOL     OW50196   1.282   4.986  11.604 -0.5679  0.4659  0.0671
16252SOL    HW150197   1.268   5.078  11.626 -1.8513  0.8629 -2.0494
16252SOL    HW250198   1.212   4.940  11.650 -0.2715  0.6185  0.6747
16253SOL     OW50199   6.940   5.370   4.719  0.5754 -0.6369 -1.0486
16253SOL    HW150200   6.986   5.421   4.785  0.1467  0.5846 -1.6739
16253SOL    HW250201   6.984   5.391   4.637 -0.2757 -0.4403 -1.4665
16254SOL     OW50202   5.851   6.877  10.695 -0.5344  0.0038 -0.6224
16254SOL    HW150203   5.842   6.972  10.683  0.6875  0.0439 -1.2978
16254SOL    HW250204   5.825   6.863  10.786  0.2299  1.1346 -0.2005
16255SOL     OW50205   0.778   2.219   2.768 -0.1610 -0.1158  0.0582
16255SOL    HW150206   0.781   2.305   2.726 -0.4840  1.5682  3.1785
16255SOL    HW250207   0.860   2.214   2.817 -0.8264 -0.8594  1.1351
16256SOL     OW50208   3.633   6.661   2.636  0.3874 -0.0748  0.2569
16256SOL    HW150209   3.658   6.575   2.671  0.6076  0.0451  0.3921
16256SOL    HW250210   3.570   6.640   2.567 -1.5463 -0.2527  1.9669
16257SOL     OW50211   7.055   2.499   5.346  0.5362  0.4244 -0.0761
16257SOL    HW150212   6.999   2.569   5.381  0.3143  1.2328 -1.9227
16257SOL    HW250213   7.107   2.470   5.420 -1.0366  0.9215  1.2825
16258SOL     OW50214   6.106   2.212   6.706  0.1916 -0.3858  0.2010
16258SOL    HW150215   6.035   2.276   6.695  0.5197  0.1876  1.2564
16258SOL    HW250216   6.164   2.252   6.771  0.8251 -1.4176  0.2900
16259SOL     OW50217   4.936   3.961   3.266  0.3011 -0.3872  0.0709
16259SOL    HW150218   4.914   4.052   3.244 -2.5077 -0.6005  1.5547
16259SOL    HW250219   4.946   3.962   3.361 -1.0199 -1.8314  0.2538
16260SOL     OW50220   7.781   4.033   8.576  0.0011  0.1602 -0.2960
16260SOL    HW150221   7.831   4.101   8.532  1.9095  0.5446  2.2100
16260SOL    HW250222   7.690   4.061   8.568  0.6826  2.6844  0.0696
16261SOL     OW50223   2.096   0.862   2.452  0.1853  0.1706 -0.0301
16261SOL    HW150224   2.030   0.931   2.440 -0.3619 -0.1171  1.1256
16261SOL    HW250225   2.058   0.785   2.410 -0.1699  0.0428  0.5096
16262SOL     OW50226   6.422   3.231   1.439 -0.2647  0.8639 -0.1655
16262SOL    HW150227   6.414   3.226   1.343  0.3547 -1.4165 -0.1366
16262SOL    HW250228   6.501   3.283   1.453  1.7118 -1.6738 -1.0519
16263SOL     OW50229   1.781   1.630   4.590 -0.3262  0.8120 -0.5583
16263SOL    HW150230   1.722   1.706   4.595 -1.9436 -0.4348  0.2775
16263SOL    HW250231   1.737   1.563   4.642  2.4650  0.1765  1.1686
16264SOL     OW50232   5.280   2.296   1.923 -0.5741 -0.1460 -0.1685
16264SOL    HW150233   5.261   2.379   1.968 -1.0405 -0.0466 -0.5386
16264SOL    HW250234   5.281   2.319   1.830  0.5330 -0.3229 -0.2176
16265SOL     OW50235   6.069   1.489  12.243 -0.2477 -0.6773 -0.1023
16265SOL    HW150236   6.011   1.539  12.300  1.1262 -1.4003  2.0466
16265SOL    HW250237   6.043   1.398  12.256  1.4902 -1.0468  1.1404
16266SOL     OW50238   4.577   6.065   3.685 -0.6206 -0.6870  0.0411
16266SOL    HW150239   4.588   6.104   3.772 -1.4590 -0.3797  0.0207
16266SOL    HW250240   4.510   5.998   3.698 -0.4788 -0.8933 -0.2939
16267SOL     OW50241   3.595   4.248   0.678  0.0650  0.1024  0.1197
16267SOL    HW150242   3.623   4.207   0.596  0.8503  0.2318  0.3190
16267SOL    HW250243   3.500   4.235   0.679  0.3558 -2.8153  0.7479
16268SOL     OW50244   5.366   5.249   0.804 -0.4392 -0.0747 -0.2921
16268SOL    HW150245   5.378   5.188   0.877  1.1722 -1.2300 -1.4489
16268SOL    HW250246   5.375   5.335   0.844  2.1580 -0.7054  0.6742
16269SOL     OW50247   3.365   4.241   0.450  0.0101  0.3433 -0.5385
16269SOL    HW150248   3.391   4.322   0.494  1.6118 -0.0959 -0.6198
16269SOL    HW250249   3.365   4.176   0.520  2.1681 -0.2729 -1.0223
16270SOL     OW50250   4.649   1.798   8.861 -0.2833 -0.4447 -0.2832
16270SOL    HW150251   4.591   1.746   8.807 -2.1991 -0.8356  1.9837
16270SOL    HW250252   4.602   1.880   8.876  0.9668  0.3642 -0.6056
16271SOL     OW50253   6.905   0.587  10.833  0.2389 -0.2471 -0.0289
16271SOL    HW150254   6.854   0.519  10.878 -2.7020 -0.2189 -3.0235
16271SOL    HW250255   6.859   0.668  10.852  0.2037  0.0479 -1.3471
16272SOL     OW50256   7.097   3.031   8.638 -0.5021  0.3022 -0.1380
16272SOL    HW150257   7.117   3.077   8.719  1.7713 -1.7116  0.5616
16272SOL    HW250258   7.161   3.065   8.575  0.0991 -0.6962 -0.0729
16273SOL     OW50259   5.254   6.512  11.594  0.3569 -0.2147  0.4277
16273SOL    HW150260   5.331   6.553  11.632  1.0834 -1.4186  0.2870
16273SOL    HW250261   5.287   6.433  11.552 -0.4472  0.7845 -2.3141
16274SOL     OW50262   0.617   3.028   2.626 -0.5637 -0.0457 -0.0557
16274SOL    HW150263   0.624   3.123   2.613  0.6527 -0.0904  0.1560
16274SOL    HW250264   0.701   3.003   2.664 -0.9423 -1.1905  0.0576
16275SOL     OW50265   5.780   3.263   8.570  0.6225  0.1210  0.2681
16275SOL    HW150266   5.778   3.169   8.585  0.1604  0.0953  0.0665
16275SOL    HW250267   5.748   3.273   8.480  0.5377  0.4819  0.3394
16276SOL     OW50268   5.155   4.407   3.940  0.3019  0.0084  0.2889
16276SOL    HW150269   5.149   4.443   4.028  1.2730  1.1109 -0.0696
16276SOL    HW250270   5.145   4.483   3.882 -3.5716 -1.0486 -0.7191
16277SOL     OW50271   5.304   0.867   0.560  0.1593 -0.1653  0.4078
16277SOL    HW150272   5.296   0.783   0.514 -1.7195 -0.4943  1.2782
16277SOL    HW250273   5.299   0.844   0.653  0.7066  0.8229  0.6921
16278SOL     OW50274   5.570   0.239   9.478 -0.2656 -0.5918 -1.1723
16278SOL    HW150275   5.506   0.309   9.467  0.1145  0.2622  1.3964
16278SOL    HW250276   5.564   0.189   9.397 -2.3188  0.9500 -2.0801
16279SOL     OW50277   3.613   7.651   1.347 -0.2863 -0.7225 -0.0828
16279SOL    HW150278   3.699   7.692   1.348 -0.2940 -0.6590 -1.0634
16279SOL    HW250279   3.629   7.562   1.379 -0.0821 -0.3325  0.9511
16280SOL     OW50280   6.775   7.484   1.271  0.2003 -0.8210  0.1641
16280SOL    HW150281   6.833   7.511   1.342  1.2042  0.5570 -1.1109
16280SOL    HW250282   6.828   7.424   1.218 -0.2116 -1.0705  0.0222
16281SOL     OW50283   1.710   2.977  10.176  0.4094  0.2506 -0.1671
16281SOL    HW150284   1.653   2.917  10.225  0.1712  0.1775 -0.5280
16281SOL    HW250285   1.656   3.006  10.103  0.2864  1.4535  0.3793
16282SOL     OW50286   1.094   6.183   9.196 -0.2300  0.2186 -0.3623
16282SOL    HW150287   1.103   6.121   9.268  0.6718  0.4343 -0.2787
16282SOL    HW250288   1.181   6.186   9.155 -0.7542  0.0055 -1.5423
16283SOL     OW50289   2.518   4.156  10.340 -0.2042  0.4268 -0.0231
16283SOL    HW150290   2.505   4.249  10.321 -0.5012  0.1984 -0.9630
16283SOL    HW250291   2.479   4.110  10.266 -0.4239 -0.4663  0.6293
16284SOL     OW50292   2.726   2.526  11.943  0.4557 -0.4481 -0.2372
16284SOL    HW150293   2.682   2.463  11.886 -0.2580 -0.1842  0.0159
16284SOL    HW250294   2.780   2.473  12.001 -1.4440 -0.9660  1.1245
16285SOL     OW50295   5.940   0.320   8.189 -0.8665  0.3136 -0.1124
16285SOL    HW150296   5.866   0.355   8.140 -1.9545  0.1288  1.3445
16285SOL    HW250297   5.905   0.243   8.234  0.2479  0.1345  0.4852
16286SOL     OW50298   4.569   5.058  11.273 -0.5169  0.0658  0.4747
16286SOL    HW150299   4.655   5.038  11.236 -0.1689  1.0887  0.7174
16286SOL    HW250300   4.566   5.008  11.355 -0.3074 -0.2515  0.2920
16287SOL     OW50301   7.437   1.787   1.847 -0.2488  0.0492  0.1971
16287SOL    HW150302   7.481   1.820   1.769 -1.1267  1.1955  0.1622
16287SOL    HW250303   7.425   1.863   1.903 -1.2399 -0.4127  0.6550
16288SOL     OW50304   0.330   5.407   0.948 -0.5955  0.6247  0.0507
16288SOL    HW150305   0.401   5.468   0.971 -0.9866  1.5899 -1.2076
16288SOL    HW250306   0.359   5.368   0.866 -1.2615  0.5738 -0.1569
16289SOL     OW50307   4.333   5.275   1.137  0.0514  0.0276 -0.5017
16289SOL    HW150308   4.254   5.254   1.088  1.0446 -1.2948 -1.6153
16289SOL    HW250309   4.311   5.253   1.228 -1.4118  1.3725 -0.4827
16290SOL     OW50310   0.116   3.914  11.702 -0.4879 -0.5181  0.2421
16290SOL    HW150311   0.165   3.921  11.784 -0.8995  0.7532  0.4083
16290SOL    HW250312   0.036   3.868  11.725 -0.4647 -0.4303  0.4976
16291SOL     OW50313   1.746   1.559  10.392  0.6270  0.3217 -0.9727
16291SOL    HW150314   1.726   1.485  10.335  1.3411  0.9372 -2.0630
16291SOL    HW250315   1.682   1.553  10.463  1.6909 -2.3078 -0.0860
16292SOL     OW50316   4.091   2.903   6.726 -0.2679  0.0025 -0.1746
16292SOL    HW150317   4.028   2.883   6.656 -0.4010 -1.5067  0.3365
16292SOL    HW250318   4.049   2.871   6.806 -0.7070  2.9026  0.8723
16293SOL     OW50319   4.489   6.860   7.768 -0.1682  0.7851  0.5966
16293SOL    HW150320   4.538   6.798   7.823  0.4584  1.2911  0.6269
16293SOL    HW250321   4.397   6.843   7.789  0.0349  0.4901  1.2821
16294SOL     OW50322   4.044   5.029  11.245  0.1169  0.4096  0.7061
16294SOL    HW150323   3.980   4.991  11.186 -0.1061  1.1514  0.4620
16294SOL    HW250324   4.128   4.996  11.213 -0.0944 -0.1626  0.7241
16295SOL     OW50325   3.397   1.219  12.432  0.8994  0.1056 -0.6223
16295SOL    HW150326   3.429   1.145  12.380  0.4192 -0.4706 -0.1063
16295SOL    HW250327   3.464   1.286  12.421  0.8084 -0.0018 -1.9856
16296SOL     OW50328   2.322   7.843   4.576 -0.1284 -0.2682  0.3897
16296SOL    HW150329   2.355   7.908   4.639 -1.4295 -0.5713  1.4192
16296SOL    HW250330   2.234   7.822   4.607  0.1469 -2.3080 -0.1075
16297SOL     OW50331   2.918   3.946   9.327  0.0182  0.5470 -0.7540
16297SOL    HW150332   2.871   3.961   9.408  0.9177 -0.5518  0.0139
16297SOL    HW250333   3.010   3.938   9.354  0.0974 -2.1603 -1.4920
16298SOL     OW50334   7.460   2.363   1.847  0.2794 -0.7935 -0.2232
16298SOL    HW150335   7.448   2.272   1.873  1.2166 -0.9354 -0.2565
16298SOL    HW250336   7.372   2.402   1.852  0.1309 -1.2717  1.3759
16299SOL     OW50337   5.482   2.445  11.970 -0.3679  0.3640  0.0179
16299SOL    HW150338   5.549   2.474  11.909  0.0160 -0.6331 -0.0542
16299SOL    HW250339   5.516   2.470  12.056  0.1068 -0.1444 -0.0173
16300SOL     OW50340   3.285   4.504   9.301 -0.1389 -0.2612 -0.1693
16300SOL    HW150341   3.327   4.578   9.343 -1.6016  0.2626  0.4493
16300SOL    HW250342   3.354   4.439   9.290  1.4926  1.6358 -1.8807
16301SOL     OW50343   6.333   7.209   8.150  0.4067 -0.9326 -0.8518
16301SOL    HW150344   6.250   7.254   8.138  1.0872  1.2246  1.6210
16301SOL    HW250345   6.374   7.210   8.063 -1.7037 -1.2800 -1.9194
16302SOL     OW50346   3.514   0.331   4.897 -0.0038 -0.6430  0.3567
16302SOL    HW150347   3.447   0.262   4.899 -1.1917  0.4688  0.5130
16302SOL    HW250348   3.524   0.358   4.988 -0.7586  0.4806  0.1293
16303SOL     OW50349   6.803   0.829   1.431  0.1245  0.2675  0.0972
16303SOL    HW150350   6.883   0.783   1.408  0.5986  1.6292 -1.1141
16303SOL    HW250351   6.754   0.767   1.486  1.2320 -1.2062 -0.5290
16304SOL     OW50352   5.189   0.042  10.034  0.7944  0.1482  0.0785
16304SOL    HW150353   5.189  -0.000   9.948  2.6257  1.8201 -0.8391
16304SOL    HW250354   5.098   0.069  10.047  0.9422  2.7789 -2.9573
16305SOL     OW50355   3.115   6.490   9.234 -0.0932  0.3145  0.4308
16305SOL    HW150356   3.115   6.492   9.330  0.4501  0.4664  0.4326
16305SOL    HW250357   3.029   6.454   9.210  0.4774 -1.5352  1.0196
16306SOL     OW50358   0.819   6.290  10.602 -0.0178 -0.0951 -0.1995
16306SOL    HW150359   0.875   6.352  10.649  2.0980 -1.1986 -1.1504
16306SOL    HW250360   0.849   6.204  10.631  0.3312 -0.7699 -2.4377
16307SOL     OW50361   6.811   2.062   3.151  0.3712  0.1744  0.0165
16307SOL    HW150362   6.797   2.078   3.244 -2.0136 -0.5770 -0.1424
16307SOL    HW250363   6.810   1.966   3.143 -0.2587  0.2452 -0.8627
16308SOL     OW50364   7.684   3.770   8.595  0.8297 -0.0340  0.2256
16308SOL    HW150365   7.731   3.853   8.602 -0.8720  0.8910  1.6860
16308SOL    HW250366   7.660   3.749   8.686  0.5159 -1.7173 -0.2111
16309SOL     OW50367   4.082   2.785   7.956 -0.5086 -0.4740  0.3637
16309SOL    HW150368   4.096   2.780   7.862 -2.1085  3.7019 -0.2688
16309SOL    HW250369   4.140   2.855   7.986 -3.4601  1.7207  1.4659
16310SOL     OW50370   5.014   6.109  10.424 -0.2404  0.4353 -0.0124
16310SOL    HW150371   4.998   6.100  10.330 -0.5433 -0.8700  0.1513
16310SOL    HW250372   4.930   6.089  10.465  0.1180  0.1287  0.5765
16311SOL     OW50373   6.745   4.562   4.049  0.7558  0.2346 -0.1274
16311SOL    HW150374   6.834   4.527   4.061  1.2062  2.2161  3.7049
16311SOL    HW250375   6.750   4.653   4.078 -2.2591  0.8932 -1.2812
16312SOL     OW50376   1.983   3.191   5.784 -0.0460 -0.4885 -0.2625
16312SOL    HW150377   1.899   3.212   5.825  0.3662 -0.5249  0.6303
16312SOL    HW250378   2.015   3.115   5.832 -0.1915 -1.4190 -1.5979
16313SOL     OW50379   7.515   7.892   3.931  0.0130  0.4986  0.0519
16313SOL    HW150380   7.536   7.806   3.896 -1.6782 -0.5489  1.4414
16313SOL    HW250381   7.463   7.874   4.009 -1.5053  2.7950 -0.3338
16314SOL     OW50382   6.385   0.441  10.948 -0.3857  0.6936 -0.3912
16314SOL    HW150383   6.344   0.443  11.034  0.2821  0.8457 -0.0648
16314SOL    HW250384   6.479   0.451  10.966 -0.3217  1.7601 -1.1918
16315SOL     OW50385   1.301   2.903   4.820 -0.0041  0.5978 -0.3200
16315SOL    HW150386   1.253   2.824   4.844  0.7708 -0.5085 -2.1937
16315SOL    HW250387   1.250   2.940   4.748 -0.5751  2.0751  0.7922
16316SOL     OW50388   4.494   1.170   5.851  0.2772 -0.0999 -0.0165
16316SOL    HW150389   4.489   1.204   5.940 -0.6748 -2.2490  0.8450
16316SOL    HW250390   4.575   1.206   5.815  0.2319  1.5129  1.3955
16317SOL     OW50391   2.379   1.548   7.430  0.1585  0.7091  0.1624
16317SOL    HW150392   2.442   1.492   7.476  0.0119  1.6674  1.6063
16317SOL    HW250393   2.423   1.633   7.423 -0.5028  1.0488  0.0653
16318SOL     OW50394   2.201   7.432   8.239  0.2458  0.0502  0.3468
16318SOL    HW150395   2.247   7.453   8.157  1.0158  0.2177  0.8169
16318SOL    HW250396   2.110   7.416   8.211  0.2207  1.2874 -0.3901
16319SOL     OW50397   0.701   2.955   7.418  0.4592 -0.8852 -0.4370
16319SOL    HW150398   0.647   3.020   7.464 -0.4674 -1.2889 -0.9240
16319SOL    HW250399   0.638   2.894   7.379  1.1457 -0.2763 -2.6874
16320SOL     OW50400   1.009   5.351   7.648 -0.1703 -0.2768 -0.3949
16320SOL    HW150401   1.025   5.424   7.707 -0.5564 -1.9581  1.9112
16320SOL    HW250402   0.929   5.375   7.601 -0.2083  0.8282  0.2085
16321SOL     OW50403   5.141   6.959   1.666  0.0503 -0.2485 -0.0325
16321SOL    HW150404   5.196   7.019   1.615 -0.8805  0.2218 -0.5165
16321SOL    HW250405   5.074   7.015   1.704  0.7360 -0.5939  1.7690
16322SOL     OW50406   4.211   3.792   1.166  0.3886 -0.0775 -0.2714
16322SOL    HW150407   4.291   3.834   1.197  0.6918 -1.0692  0.3139
16322SOL    HW250408   4.168   3.860   1.114  0.2024  1.4290  1.7044
16323SOL     OW50409   1.283   5.005   0.967 -0.2394 -0.5961  0.2780
16323SOL    HW150410   1.290   5.010   1.062  2.8885 -0.6377  0.1735
16323SOL    HW250411   1.211   4.945   0.950  0.3900 -2.1474  2.6847
16324SOL     OW50412   2.920   4.272   0.761  0.1659 -0.3514  0.2092
16324SOL    HW150413   2.967   4.193   0.735 -0.7983 -1.1510  0.7921
16324SOL    HW250414   2.987   4.330   0.796  1.0569 -0.4400 -1.2914
16325SOL     OW50415   7.815   1.134   6.356 -0.0532 -0.0694 -0.4194
16325SOL    HW150416   7.879   1.076   6.398 -0.5579 -0.9005 -0.7633
16325SOL    HW250417   7.857   1.162   6.275  0.5737  0.8331  0.1993
16326SOL     OW50418   0.362   7.521   1.099 -0.2520  0.0390  0.2278
16326SOL    HW150419   0.288   7.465   1.122 -1.3599  1.6166  0.6537
16326SOL    HW250420   0.322   7.605   1.075  1.3765  0.7986  0.0573
16327SOL     OW50421   4.510   3.865   4.547  0.6320 -0.4250  0.1116
16327SOL    HW150422   4.492   3.959   4.546  2.8435  0.0815 -1.8295
16327SOL    HW250423   4.428   3.824   4.522  0.2603  1.1752 -1.4752
16328SOL     OW50424   6.356   6.210   8.146 -0.2895 -0.7684  0.3045
16328SOL    HW150425   6.262   6.209   8.126 -0.1468  0.5411 -0.5282
16328SOL    HW250426   6.365   6.271   8.219  0.1019  0.6194 -0.8524
16329SOL     OW50427   7.736   6.727  11.005  0.4071  0.0029 -0.2567
16329SOL    HW150428   7.774   6.795  10.948  0.6229  0.5417  0.5136
16329SOL    HW250429   7.799   6.655  11.000  1.3639  0.7326  0.6827
16330SOL     OW50430   0.041   4.350   4.179  0.0026  0.3507  0.2674
16330SOL    HW150431   0.024   4.310   4.093  0.0354  0.3277  0.2715
16330SOL    HW250432  -0.046   4.380   4.208  0.0905  0.9595 -0.0705
16331SOL     OW50433   1.544   2.701   0.179 -0.1195 -0.3992  0.0493
16331SOL    HW150434   1.551   2.770   0.245  1.2795 -1.8208  1.5216
16331SOL    HW250435   1.450   2.688   0.167 -0.4019  1.7038 -0.2521
16332SOL     OW50436   1.482   0.226   5.846 -0.1598  0.2928  1.0907
16332SOL    HW150437   1.392   0.195   5.855 -0.6623  1.8584  1.9221
16332SOL    HW250438   1.494   0.287   5.919  1.0177  1.3633  0.0572
16333SOL     OW50439   0.309   3.087   9.625 -0.3447 -0.1331  0.1688
16333SOL    HW150440   0.398   3.117   9.642 -0.2109  0.8390 -1.9284
16333SOL    HW250441   0.319   2.993   9.607  0.2755 -0.0307 -0.0596
16334SOL     OW50442   2.124   2.542   6.685  0.6242  1.0470  0.0356
16334SOL    HW150443   2.186   2.520   6.615  2.6829 -2.4836  2.6235
16334SOL    HW250444   2.065   2.466   6.688  0.4981  1.1782  1.9610
16335SOL     OW50445   3.303   2.245   4.733 -0.3895 -0.3293  0.1753
16335SOL    HW150446   3.250   2.215   4.807 -0.6795 -1.3113 -0.4065
16335SOL    HW250447   3.302   2.341   4.739 -0.8156 -0.3893  1.1531
16336SOL     OW50448   6.054   1.541   4.990  0.2537  0.8452 -0.2446
16336SOL    HW150449   6.036   1.450   4.965  0.8855  0.7362 -0.3242
16336SOL    HW250450   6.014   1.593   4.921 -0.1917  0.6312 -0.1515
16337SOL     OW50451   5.428   0.429  11.521 -0.2485 -0.0578  0.1817
16337SOL    HW150452   5.439   0.488  11.447 -0.5995 -1.7737 -1.3001
16337SOL    HW250453   5.484   0.354  11.501 -0.8010 -0.8252  1.3599
16338SOL     OW50454   1.719   2.508   5.340 -0.1276  0.1776  0.1395
16338SOL    HW150455   1.799   2.512   5.393  0.1615  2.8308 -0.3386
16338SOL    HW250456   1.750   2.523   5.250 -1.0466  0.0697 -0.2020
16339SOL     OW50457   6.712   6.785   6.169 -0.5813 -0.0898 -0.9646
16339SOL    HW150458   6.770   6.856   6.197  0.9824 -1.0242 -1.7085
16339SOL    HW250459   6.643   6.829   6.120  0.4136  0.9344 -1.5002
16340SOL     OW50460   2.578   6.752   7.173 -0.3916 -0.1183  0.6677
16340SOL    HW150461   2.595   6.756   7.079 -1.9726 -0.0735  0.3452
16340SOL    HW250462   2.483   6.735   7.179 -0.1566 -1.0496  2.2482
16341SOL     OW50463   3.552   1.227   6.754 -0.1061 -0.8871 -0.0700
16341SOL    HW150464   3.515   1.143   6.727 -0.2621 -0.8376 -0.0154
16341SOL    HW250465   3.635   1.205   6.795  0.1060 -0.9687 -0.5363
16342SOL     OW50466   6.080   2.808   9.260 -0.2471 -0.0419 -0.2394
16342SOL    HW150467   6.048   2.862   9.332 -1.6835 -0.9122 -0.1881
16342SOL    HW250468   6.135   2.867   9.209 -0.4933  1.0278  0.6784
16343SOL     OW50469   7.858   6.234   2.681 -0.1892  0.2978 -0.4228
16343SOL    HW150470   7.902   6.228   2.596 -1.3235 -0.6991 -0.9742
16343SOL    HW250471   7.842   6.143   2.706 -3.3658  0.5886 -1.0432
16344SOL     OW50472   6.512   7.172   1.097 -0.1930 -0.1816 -0.4209
16344SOL    HW150473   6.604   7.168   1.121 -0.0244  0.2901 -0.9782
16344SOL    HW250474   6.465   7.171   1.180  0.2063 -2.7241 -0.1504
16345SOL     OW50475   2.298   2.867   6.418  0.4905  0.6575 -0.1001
16345SOL    HW150476   2.243   2.790   6.432  1.1170  0.1115 -0.5640
16345SOL    HW250477   2.341   2.881   6.503 -0.6497  1.3336  0.3825
16346SOL     OW50478   6.364   2.199   7.953 -0.6820  0.4189  0.1937
16346SOL    HW150479   6.349   2.157   8.038  0.7399  0.5794  0.5363
16346SOL    HW250480   6.339   2.290   7.967  2.9022  1.3481  1.5696
16347SOL     OW50481   3.411   2.372   5.259  0.5027  0.2259  0.0964
16347SOL    HW150482   3.397   2.323   5.340  1.3866  1.3435  0.9567
16347SOL    HW250483   3.348   2.444   5.264  1.7007  1.2739  0.6436
16348SOL     OW50484   7.908   5.332   0.245 -0.1822 -0.2927 -0.2130
16348SOL    HW150485   7.932   5.322   0.337  1.3953 -0.9062 -0.6501
16348SOL    HW250486   7.814   5.313   0.242 -0.1136 -0.9641  1.1751
16349SOL     OW50487   2.713   4.784   9.976  0.4752 -0.4608 -0.3870
16349SOL    HW150488   2.772   4.819   9.909 -1.3570 -0.7017 -2.2187
16349SOL    HW250489   2.748   4.818  10.059  2.7664 -0.0682 -1.4368
16350SOL     OW50490   3.761   0.206   1.495  0.2674 -0.4944 -0.1626
16350SOL    HW150491   3.832   0.254   1.537  1.0003  0.6034 -2.4607
16350SOL    HW250492   3.695   0.195   1.563  0.9853  1.9269  1.0234
16351SOL     OW50493   4.099   2.527   2.983  0.0337 -0.3337  0.3532
16351SOL    HW150494   4.023   2.473   3.001 -0.4873  0.3171  0.1583
16351SOL    HW250495   4.074   2.578   2.906  0.0186  1.0781  1.2504
16352SOL     OW50496   7.145   2.203  11.426  0.0545 -0.0836 -0.0349
16352SOL    HW150497   7.083   2.139  11.461 -1.7252  1.8319  0.4858
16352SOL    HW250498   7.119   2.214  11.335  0.4432 -0.1828 -0.1601
16353SOL     OW50499   6.312   4.858   6.763  0.0796  0.8078 -0.0410
16353SOL    HW150500   6.357   4.907   6.694 -1.5094 -1.7226 -3.1729
16353SOL    HW250501   6.351   4.770   6.758 -1.6397 -0.0368  0.6924
16354SOL     OW50502   5.936   5.829   4.587 -0.4657  0.5069 -0.3701
16354SOL    HW150503   6.000   5.867   4.646 -0.1765 -0.5443  0.0152
16354SOL    HW250504   5.970   5.742   4.567 -0.3121  0.9762 -2.4462
16355SOL     OW50505   1.887   4.202   0.818  0.1206  0.2482 -1.1170
16355SOL    HW150506   1.906   4.162   0.903  0.6532 -0.0383 -1.3660
16355SOL    HW250507   1.795   4.229   0.825  1.0565  3.6429  0.9224
16356SOL     OW50508   3.191   5.224  12.268 -0.0708  0.5091 -0.3186
16356SOL    HW150509   3.120   5.162  12.253 -0.3764  0.6236  0.5581
16356SOL    HW250510   3.251   5.210  12.195  0.4919 -1.7032  0.4795
16357SOL     OW50511   4.211   5.165  10.619  0.1269 -0.1220  0.4178
16357SOL    HW150512   4.156   5.217  10.678  0.2953  0.4622  0.0691
16357SOL    HW250513   4.149   5.120  10.562 -0.0235  2.7858 -1.9147
16358SOL     OW50514   7.869   0.370   6.076 -0.2604 -0.3213  0.1159
16358SOL    HW150515   7.832   0.288   6.044 -0.0291 -1.2101  1.9796
16358SOL    HW250516   7.961   0.368   6.049 -0.3484 -0.4970 -0.1700
16359SOL     OW50517   0.536   2.851   0.084  0.5548 -0.0616  0.2171
16359SOL    HW150518   0.518   2.815   0.171  0.9241  1.7907  1.0928
16359SOL    HW250519   0.615   2.904   0.096  1.3969 -0.8534 -1.5638
16360SOL     OW50520   4.322   0.796   4.056 -0.7576 -0.0490  0.3530
16360SOL    HW150521   4.355   0.882   4.082  0.7120 -0.2242 -0.7860
16360SOL    HW250522   4.328   0.743   4.135 -1.5911  0.8452  1.0453
16361SOL     OW50523   5.924   2.052   4.499 -0.3748  0.6551 -0.4450
16361SOL    HW150524   5.949   2.019   4.586 -0.3532 -0.8139 -0.9754
16361SOL    HW250525   5.867   1.984   4.464  2.1590 -0.3976 -2.8731
16362SOL     OW50526   4.682   2.170  12.133  0.2054  0.1899 -0.6718
16362SOL    HW150527   4.641   2.105  12.191  0.0321  0.7628 -0.1427
16362SOL    HW250528   4.645   2.152  12.047  0.4904 -0.7003 -0.6244
16363SOL     OW50529   6.917   0.113   9.771  0.1266  0.0940 -0.3479
16363SOL    HW150530   6.899   0.129   9.864 -0.1021 -1.3228 -0.1362
16363SOL    HW250531   6.883   0.026   9.754  0.4190  0.2235 -1.7079
16364SOL     OW50532   2.869   1.511   6.746 -0.1346 -0.0370 -0.9627
16364SOL    HW150533   2.894   1.521   6.838 -0.6125 -1.1633 -0.6822
16364SOL    HW250534   2.851   1.599   6.715 -0.0696  0.3417  0.0606
16365SOL     OW50535   2.652   2.792   7.318  0.2383 -0.3180 -0.8270
16365SOL    HW150536   2.598   2.852   7.369 -0.6994 -1.4840 -0.3902
16365SOL    HW250537   2.738   2.796   7.359 -0.1313 -0.1721 -0.0464
16366SOL     OW50538   4.433   5.354   9.466 -0.2152 -0.2235  0.4639
16366SOL    HW150539   4.432   5.306   9.383 -1.6800 -0.7326  0.7479
16366SOL    HW250540   4.389   5.295   9.527  1.6871 -0.2781  1.8651
16367SOL     OW50541   5.923   0.697   7.846  0.5324  0.2981 -0.0151
16367SOL    HW150542   5.925   0.604   7.822 -1.3061  0.0788  0.5464
16367SOL    HW250543   5.853   0.704   7.910  2.0902  1.7293  1.6363
16368SOL     OW50544   0.203   6.890  11.364  0.6829  0.2192 -0.1244
16368SOL    HW150545   0.152   6.886  11.282  1.5008 -0.7204 -0.6109
16368SOL    HW250546   0.142   6.927  11.428  0.3039  1.8322 -1.3539
16369SOL     OW50547   1.095   2.623   0.374 -0.5508  0.4904 -0.0150
16369SOL    HW150548   1.040   2.616   0.452 -0.2596 -1.4390  0.0722
16369SOL    HW250549   1.121   2.715   0.371  0.5039  0.4071  2.9432
16370SOL     OW50550   6.233   1.302   0.115 -0.0823  0.3583 -0.1045
16370SOL    HW150551   6.153   1.309   0.062  0.2476  1.8750 -0.4439
16370SOL    HW250552   6.304   1.316   0.053  0.3828  0.5262  0.4557
16371SOL     OW50553   0.104   0.245  11.776  0.1248 -0.2140 -0.5051
16371SOL    HW150554   0.152   0.313  11.729 -0.2273 -0.4343 -1.1929
16371SOL    HW250555   0.017   0.282  11.790 -0.3996 -0.8964 -1.7962
16372SOL     OW50556   0.729   7.325  11.786 -0.4039 -0.1732 -0.4858
16372SOL    HW150557   0.679   7.259  11.835 -1.3623 -1.1415 -2.6346
16372SOL    HW250558   0.777   7.274  11.720  0.9524  1.0657 -0.4910
16373SOL     OW50559   4.245   1.345  10.525  0.0139  0.2993  0.1052
16373SOL    HW150560   4.333   1.324  10.494 -0.2428 -1.3043  0.3619
16373SOL    HW250561   4.212   1.409  10.462  1.0633  0.3015 -0.4602
16374SOL     OW50562   1.432   3.027   0.735  0.0632  0.1230 -0.5205
16374SOL    HW150563   1.390   2.960   0.789 -1.8689  0.1029 -1.9552
16374SOL    HW250564   1.476   3.084   0.799  1.3773 -2.1509  0.7808
16375SOL     OW50565   0.264   7.344   0.269  0.0379  0.8341 -0.6904
16375SOL    HW150566   0.241   7.257   0.301 -1.1549  1.3915  0.0299
16375SOL    HW250567   0.198   7.364   0.203  1.1456  0.6311 -1.9082
16376SOL     OW50568   2.666   7.057  12.398  0.0326  0.2588 -0.3348
16376SOL    HW150569   2.742   7.107  12.367  0.0288 -0.0295 -0.8139
16376SOL    HW250570   2.702   6.997  12.463  0.3134 -0.2412 -0.9361
16377SOL     OW50571   1.529   6.649   0.906 -0.5327  0.5587  0.1241
16377SOL    HW150572   1.529   6.650   1.002  0.0840 -0.2052  0.1419
16377SOL    HW250573   1.481   6.569   0.883 -0.2494  0.4799 -0.1964
16378SOL     OW50574   5.395   6.657  10.215 -0.2427 -0.0624  0.4961
16378SOL    HW150575   5.346   6.609  10.148 -1.2319  0.7174  0.6386
16378SOL    HW250576   5.483   6.667  10.178 -0.5778 -0.2476 -0.3836
16379SOL     OW50577   2.379   3.669   0.310  0.4794 -0.0381  0.3431
16379SOL    HW150578   2.440   3.664   0.384  0.7657 -0.0484  0.1044
16379SOL    HW250579   2.435   3.676   0.233  0.1619  1.7513  0.2436
16380SOL     OW50580   7.336   2.533   2.172  0.0002 -1.0659  0.1436
16380SOL    HW150581   7.281   2.479   2.114 -0.4931  0.5415 -0.9808
16380SOL    HW250582   7.274   2.568   2.236 -0.7849  1.9688 -2.0136
16381SOL     OW50583   1.627   0.384   2.288 -0.1924 -0.0351  0.4597
16381SOL    HW150584   1.660   0.463   2.331  0.8337 -0.4414  0.4438
16381SOL    HW250585   1.609   0.411   2.198 -3.6679  1.1911  1.3558
16382SOL     OW50586   0.063   4.755   8.510 -0.7724 -0.4635  0.5756
16382SOL    HW150587   0.146   4.804   8.514 -1.3615  0.4750  1.7914
16382SOL    HW250588   0.024   4.766   8.596 -3.1023  0.7830 -0.5578
16383SOL     OW50589   2.285   0.157   0.733 -0.5894 -0.1982  0.4706
16383SOL    HW150590   2.377   0.151   0.759  0.0091 -1.5424 -1.7024
16383SOL    HW250591   2.239   0.098   0.792  0.2524 -0.9506  0.4011
16384SOL     OW50592   3.977   4.371  11.979 -0.0922  0.5068 -0.7721
16384SOL    HW150593   4.060   4.348  12.020  0.8206 -1.3583 -3.4320
16384SOL    HW250594   3.911   4.324  12.030  1.0514 -2.2147 -1.6376
16385SOL     OW50595   6.735   3.243   4.601  0.4616  0.1848 -0.0800
16385SOL    HW150596   6.830   3.249   4.609  0.3873  1.1117  0.2796
16385SOL    HW250597   6.707   3.196   4.679  0.8276 -2.5606 -1.5036
16386SOL     OW50598   4.134   5.272   2.337  0.2647  0.5656  0.3465
16386SOL    HW150599   4.086   5.288   2.256  0.6448  0.3632  0.0791
16386SOL    HW250600   4.069   5.234   2.396  0.5460 -1.7310 -0.7007
16387SOL     OW50601   7.037   1.367  11.586  0.0814 -0.1399 -0.3203
16387SOL    HW150602   7.099   1.328  11.524  0.1166 -1.4948  0.5337
16387SOL    HW250603   7.077   1.353  11.672 -0.1121  1.4409  0.0659
16388SOL     OW50604   3.424   6.673   1.062  0.6022  0.0815 -0.0177
16388SOL    HW150605   3.448   6.762   1.035  1.5467  0.1790  1.1031
16388SOL    HW250606   3.499   6.641   1.112  0.3953 -1.4697 -0.6402
16389SOL     OW50607   2.044   4.049   8.958  0.6065  0.0437 -1.0770
16389SOL    HW150608   2.008   3.983   8.898  1.8894 -0.5236 -1.2596
16389SOL    HW250609   2.124   4.078   8.915  0.9905  0.3980 -0.1232
16390SOL     OW50610   0.508   2.961   1.871  0.2162 -0.3022 -0.2516
16390SOL    HW150611   0.533   3.026   1.805  1.0837 -0.1429  0.2138
16390SOL    HW250612   0.582   2.901   1.875 -0.3757 -1.0557 -0.3346
16391SOL     OW50613   4.227   0.679   4.783  0.2903 -0.1717 -0.2021
16391SOL    HW150614   4.163   0.656   4.715  0.9127  0.1677 -0.9132
16391SOL    HW250615   4.176   0.676   4.865 -0.3401 -1.1163 -0.6062
16392SOL     OW50616   4.870   3.662   4.679  0.2214  0.5054 -0.0096
16392SOL    HW150617   4.868   3.569   4.656 -2.3931  1.1712 -3.2005
16392SOL    HW250618   4.947   3.696   4.634  1.6631 -0.1417  1.8324
16393SOL     OW50619   3.894   1.047  11.795  0.4904  0.0997  0.4746
16393SOL    HW150620   3.970   1.027  11.741  0.6467  2.4371 -0.2894
16393SOL    HW250621   3.922   1.121  11.849 -1.3723  1.4049 -0.2278
16394SOL     OW50622   0.183   6.856   9.003 -0.4607 -0.0529  0.4741
16394SOL    HW150623   0.153   6.905   8.926  1.0460 -0.1276 -0.2116
16394SOL    HW250624   0.148   6.905   9.077 -0.0611  1.3651 -0.2209
16395SOL     OW50625   5.011   5.817   6.592  0.5827 -0.2510 -0.1000
16395SOL    HW150626   4.998   5.733   6.547  0.9451 -0.2533 -0.2054
16395SOL    HW250627   4.949   5.815   6.665 -1.0507  0.3674 -1.4105
16396SOL     OW50628   4.229   3.992   3.412  0.4531 -0.0921  0.6675
16396SOL    HW150629   4.250   3.913   3.362 -0.2284  0.2300 -0.1484
16396SOL    HW250630   4.291   4.058   3.379  0.5899 -0.1132  0.8819
16397SOL     OW50631   4.948   7.821   3.258  0.8575  0.3859  0.0938
16397SOL    HW150632   4.982   7.791   3.174 -1.6387 -2.9521  0.0966
16397SOL    HW250633   4.992   7.766   3.323 -0.6478 -0.3511  0.5162
16398SOL     OW50634   6.723   0.696   7.795 -0.1192 -0.0407  0.2720
16398SOL    HW150635   6.659   0.766   7.809  0.5239  0.4980  0.5585
16398SOL    HW250636   6.671   0.616   7.796 -0.8613  0.4237 -0.0011
16399SOL     OW50637   5.412   2.195   7.138  0.5293 -0.1337  0.3632
16399SOL    HW150638   5.334   2.167   7.187  1.6444  0.0215  2.3110
16399SOL    HW250639   5.446   2.270   7.188  2.7605 -1.1277  0.4154
16400SOL     OW50640   5.788   7.631  10.803  0.3478  0.4707 -0.1673
16400SOL    HW150641   5.825   7.687  10.871  0.6768  0.9949 -0.7633
16400SOL    HW250642   5.861   7.617  10.743  0.1605 -0.2924 -0.2172
16401SOL     OW50643   4.109   2.395   6.360 -0.0814  0.1242  0.3970
16401SOL    HW150644   4.107   2.359   6.271 -0.9865 -0.1782  0.5231
16401SOL    HW250645   4.201   2.390   6.385  0.0636 -0.5943 -0.2069
16402SOL     OW50646   6.466   7.194   1.685  0.8788  0.0398 -0.1139
16402SOL    HW150647   6.376   7.218   1.662  0.5452 -0.1662  0.9251
16402SOL    HW250648   6.518   7.223   1.610 -0.0103  0.4200 -0.6072
16403SOL     OW50649   0.333   1.437  11.744  0.7491  0.2649  0.9166
16403SOL    HW150650   0.349   1.475  11.831 -0.6924 -0.7800  1.6984
16403SOL    HW250651   0.355   1.344  11.754 -0.6520 -0.1302  0.5637
16404SOL     OW50652   1.674   3.602  10.501  0.3025 -0.4477  0.1762
16404SOL    HW150653   1.709   3.564  10.420  0.8484 -0.2825  0.3355
16404SOL    HW250654   1.709   3.691  10.503  2.0330 -1.1083  1.6595
16405SOL     OW50655   6.765   7.583   6.383 -0.1849  0.0170 -0.5929
16405SOL    HW150656   6.697   7.579   6.315  0.5598  1.9061 -1.5179
16405SOL    HW250657   6.738   7.656   6.439  0.2325 -0.2733 -0.0077
16406SOL     OW50658   0.696   1.524   5.261 -0.2975 -0.6183 -0.0099
16406SOL    HW150659   0.714   1.584   5.333 -1.2682 -1.2232  0.7730
16406SOL    HW250660   0.605   1.542   5.237 -0.2131 -0.9325 -0.5785
16407SOL     OW50661   1.150   6.037   5.723 -0.5504 -0.3566  0.2933
16407SOL    HW150662   1.100   5.981   5.783 -1.2283 -0.8315 -0.6845
16407SOL    HW250663   1.112   6.124   5.734 -1.2604 -0.6090 -0.0474
16408SOL     OW50664   2.059   6.936   6.744  0.5689  0.0254 -0.3694
16408SOL    HW150665   2.069   7.026   6.713  1.8140  0.2313  0.5535
16408SOL    HW250666   2.053   6.944   6.839  1.3903 -0.9029 -0.2211
16409SOL     OW50667   2.202   0.487   1.874  0.1624  0.3549  0.0027
16409SOL    HW150668   2.261   0.456   1.943 -1.1042  0.4072  1.1555
16409SOL    HW250669   2.195   0.413   1.813  2.2453  0.7240 -0.7748
16410SOL     OW50670   5.583   4.313   8.978 -0.0937 -0.0007  0.5748
16410SOL    HW150671   5.677   4.330   8.984  0.4464 -2.8387  1.6203
16410SOL    HW250672   5.570   4.283   8.888  0.4918 -1.7790  1.0397
16411SOL     OW50673   3.424   3.705  10.088  0.5161  0.2056  0.5885
16411SOL    HW150674   3.485   3.633  10.072 -1.6598 -1.7188  0.3914
16411SOL    HW250675   3.446   3.736  10.176  2.0233 -0.0959  0.3556
16412SOL     OW50676   2.698   1.155   5.552  0.0974  0.2587  0.4382
16412SOL    HW150677   2.651   1.162   5.635  1.3458 -3.3624  1.6797
16412SOL    HW250678   2.658   1.079   5.508 -0.0467  1.6483 -2.0051
16413SOL     OW50679   1.200   1.525  10.544 -0.0225 -0.5389  0.4854
16413SOL    HW150680   1.193   1.565  10.631 -1.9520 -0.2162  0.2268
16413SOL    HW250681   1.260   1.582  10.496  0.3692 -0.2212  1.3314
16414SOL     OW50682   1.036   0.859   2.765  0.0707  0.2164 -0.0464
16414SOL    HW150683   1.100   0.812   2.712 -0.8800 -0.9537 -0.1968
16414SOL    HW250684   0.978   0.900   2.701 -0.7066 -0.6767  0.0741
16415SOL     OW50685   2.046   5.679   4.603  0.1254  0.3256 -0.3961
16415SOL    HW150686   2.014   5.590   4.619  0.1517  0.4479  0.3530
16415SOL    HW250687   1.967   5.731   4.592  0.0781  0.4629  0.5599
16416SOL     OW50688   3.415   7.449   3.939 -0.1138  0.4744  0.1576
16416SOL    HW150689   3.417   7.353   3.942 -0.8929  0.4486  0.0240
16416SOL    HW250690   3.477   7.472   3.869 -0.4298  0.0333 -0.2779
16417SOL     OW50691   3.784   0.607   8.459 -0.1086  0.4786 -0.4363
16417SOL    HW150692   3.706   0.661   8.445 -0.7471  0.0275  1.1192
16417SOL    HW250693   3.842   0.662   8.511 -0.7030 -0.2231  1.0336
16418SOL     OW50694   7.522   4.496   0.370  0.3769 -0.2908  0.0739
16418SOL    HW150695   7.535   4.454   0.285  0.1503  1.4261 -0.8630
16418SOL    HW250696   7.433   4.531   0.367  1.3137  2.3633 -0.2517
16419SOL     OW50697   4.636   4.038   7.176  0.2224  0.4578  0.4302
16419SOL    HW150698   4.558   4.064   7.225  1.9503  0.5961  3.3602
16419SOL    HW250699   4.623   3.945   7.159 -0.5797  0.4741  0.8724
16420SOL     OW50700   7.100   5.691   8.109 -0.7757 -0.1861 -0.0125
16420SOL    HW150701   7.038   5.735   8.167  1.2092  1.9490  0.6283
16420SOL    HW250702   7.111   5.751   8.035  1.0292 -0.1206  0.2555
16421SOL     OW50703   1.316   6.972   3.933 -0.2660 -0.1886 -0.4445
16421SOL    HW150704   1.395   6.943   3.887 -0.7436 -0.0851 -1.3529
16421SOL    HW250705   1.342   7.053   3.976  0.0505 -0.0004 -0.9746
16422SOL     OW50706   0.694   2.003   6.865 -0.1813  0.1671 -0.0208
16422SOL    HW150707   0.696   1.932   6.929 -1.4221 -1.0055 -1.2033
16422SOL    HW250708   0.622   2.059   6.894  0.1865  0.4227  0.3981
16423SOL     OW50709   3.059   0.729   0.235  0.2117 -0.1157 -0.1863
16423SOL    HW150710   3.098   0.746   0.321  0.8948  1.0478 -0.7000
16423SOL    HW250711   3.132   0.699   0.181  0.2586  1.1881 -0.9041
16424SOL     OW50712   0.296   4.528   6.966 -0.3159 -0.0588 -0.2723
16424SOL    HW150713   0.259   4.539   6.878 -1.2300 -1.2943 -0.0735
16424SOL    HW250714   0.221   4.535   7.025  0.4769  2.0951  0.5489
16425SOL     OW50715   3.417   5.326   8.520  0.1056  0.5663  0.0151
16425SOL    HW150716   3.436   5.288   8.606 -2.4685 -0.0860  0.3714
16425SOL    HW250717   3.382   5.413   8.539  0.9345  1.0323 -0.5060
16426SOL     OW50718   5.987   3.038   6.272 -0.0724  0.3854  0.4857
16426SOL    HW150719   5.945   3.044   6.187 -0.2691 -0.9607  0.4582
16426SOL    HW250720   6.050   3.110   6.273  0.2529  0.1591 -0.9831
16427SOL     OW50721   3.307   2.428  10.366  0.1233  0.2023  0.4524
16427SOL    HW150722   3.385   2.465  10.324  1.3338 -1.8319  0.7895
16427SOL    HW250723   3.335   2.410  10.456 -1.4912  1.5747  1.2957
16428SOL     OW50724   2.563   3.214  11.178 -0.2917 -0.2504 -0.2551
16428SOL    HW150725   2.521   3.273  11.115 -0.9906 -1.2572 -0.7522
16428SOL    HW250726   2.570   3.267  11.258  2.0591  1.6015 -1.5342
16429SOL     OW50727   4.257   0.971   7.589 -0.3850  0.5194 -0.0480
16429SOL    HW150728   4.297   0.893   7.627 -1.4817 -0.1124 -0.1570
16429SOL    HW250729   4.329   1.034   7.582  0.6830 -0.7287 -0.6602
16430SOL     OW50730   2.447   3.210   3.458 -0.8723 -0.1331 -0.2922
16430SOL    HW150731   2.376   3.243   3.403 -0.3359  0.1819 -0.8036
16430SOL    HW250732   2.507   3.285   3.466 -1.6346  0.3125  1.9111
16431SOL     OW50733   3.282   0.080   1.053 -0.0957  0.5319  0.4300
16431SOL    HW150734   3.301   0.052   0.963  0.1451  1.3428  0.2155
16431SOL    HW250735   3.248   0.002   1.096 -2.1787  0.5930 -0.9328
16432SOL     OW50736   3.946   1.768   3.998  0.0023  0.4715  0.2702
16432SOL    HW150737   4.024   1.812   4.032 -0.3295  0.4931  1.0314
16432SOL    HW250738   3.876   1.793   4.059 -0.1829 -1.1684  0.7972
16433SOL     OW50739   3.633   7.096   8.116  0.6246 -0.2404 -0.4433
16433SOL    HW150740   3.613   7.184   8.145 -0.1892  0.2749 -2.4254
16433SOL    HW250741   3.682   7.108   8.035 -0.2154 -1.5968 -1.1863
16434SOL     OW50742   5.264   1.444   1.185 -0.2043  0.1642  0.4499
16434SOL    HW150743   5.266   1.424   1.279  0.1769 -1.7819  0.0888
16434SOL    HW250744   5.190   1.393   1.151 -0.2847  0.7726 -0.3172
16435SOL     OW50745   0.750   4.832   8.466  0.2658  0.0977  0.0704
16435SOL    HW150746   0.719   4.899   8.527  1.3121 -0.1975  0.9515
16435SOL    HW250747   0.840   4.813   8.494 -0.0240 -1.7289 -0.0865
16436SOL     OW50748   7.738   2.747   1.737  0.5332  0.2542 -0.1909
16436SOL    HW150749   7.830   2.762   1.759  0.7054 -0.2534 -0.5446
16436SOL    HW250750   7.690   2.782   1.812  1.1614 -3.3066  2.1368
16437SOL     OW50751   0.838   4.481   2.729  0.1442 -0.3870 -0.0608
16437SOL    HW150752   0.924   4.451   2.757  0.4442  1.3560  1.0906
16437SOL    HW250753   0.783   4.403   2.730  1.5827 -1.4516 -0.3962
16438SOL     OW50754   2.159   6.785   9.340  0.3674 -0.1110  0.5311
16438SOL    HW150755   2.137   6.692   9.349  0.0663 -0.3552 -2.0007
16438SOL    HW250756   2.111   6.827   9.411  1.8457 -2.0129  2.8157
16439SOL     OW50757   7.119   0.476   1.012 -0.0173  0.0574 -0.1298
16439SOL    HW150758   7.159   0.496   0.927  1.0743  1.8584  0.7413
16439SOL    HW250759   7.041   0.531   1.014 -1.7808 -2.2246 -1.1361
16440SOL     OW50760   6.308   6.437   1.897 -0.1867  0.5962 -0.4349
16440SOL    HW150761   6.223   6.405   1.865 -0.6497 -0.8733  2.0084
16440SOL    HW250762   6.364   6.360   1.896  1.1317  1.5195 -1.8454
16441SOL     OW50763   1.032   1.990   2.313  0.1056 -0.1044  0.7821
16441SOL    HW150764   1.104   2.031   2.267  0.1911 -0.4543  0.6008
16441SOL    HW250765   1.068   1.908   2.346 -0.7405 -1.2790 -1.0537
16442SOL     OW50766   0.708   3.222   3.432 -0.0548  0.3230 -0.2858
16442SOL    HW150767   0.775   3.154   3.429 -1.1722 -0.8780  0.6142
16442SOL    HW250768   0.721   3.265   3.516 -1.4083 -1.0529  0.6911
16443SOL     OW50769   2.978   1.635   9.739 -0.1864  0.0677 -0.5297
16443SOL    HW150770   3.014   1.688   9.668 -1.8943  2.2932  0.1536
16443SOL    HW250771   3.029   1.661   9.816  0.2760 -0.7844 -0.5390
16444SOL     OW50772   5.416   7.386   8.411  0.4499 -0.3874 -0.1124
16444SOL    HW150773   5.410   7.478   8.435 -1.7338 -0.4823 -0.0873
16444SOL    HW250774   5.325   7.359   8.397  0.8555 -2.9821  1.5791
16445SOL     OW50775   5.103   7.018   2.092 -0.0220 -0.4142  0.0292
16445SOL    HW150776   5.170   6.986   2.153 -1.0571 -3.1972 -0.1489
16445SOL    HW250777   5.046   6.943   2.077 -2.3337  1.4141 -1.0315
16446SOL     OW50778   0.742   2.519   2.648  0.5885 -1.0568 -0.6327
16446SOL    HW150779   0.817   2.509   2.706  0.1359  1.8467  0.6075
16446SOL    HW250780   0.775   2.570   2.574 -0.2009  0.8277  0.2391
16447SOL     OW50781   2.727   7.402   2.646  0.0763 -0.3814 -0.2064
16447SOL    HW150782   2.795   7.412   2.713 -1.9710 -1.6106  2.2701
16447SOL    HW250783   2.753   7.325   2.597 -0.1339 -1.7397  1.6774
16448SOL     OW50784   5.413   6.804   0.813 -0.3832  0.0189  0.2165
16448SOL    HW150785   5.441   6.836   0.728  2.1657 -0.0406  0.9520
16448SOL    HW250786   5.467   6.852   0.876 -1.5373 -0.6123  1.7597
16449SOL     OW50787   5.241   6.856   4.647 -0.3506 -0.2236 -0.5290
16449SOL    HW150788   5.194   6.853   4.564  0.8877  1.7964 -1.3499
16449SOL    HW250789   5.304   6.785   4.642 -0.0668  0.0904 -1.4556
16450SOL     OW50790   1.842   7.430   9.853  0.4173 -0.2170  0.8058
16450SOL    HW150791   1.814   7.477   9.775  1.3116 -0.4115  0.3559
16450SOL    HW250792   1.834   7.337   9.829  0.2050 -0.2877  1.1318
16451SOL     OW50793   6.411   4.233   6.760 -0.1153  0.3696 -0.3604
16451SOL    HW150794   6.474   4.166   6.733  0.5931  0.2067  1.5338
16451SOL    HW250795   6.361   4.192   6.831  1.1313  2.1412  1.6895
16452SOL     OW50796   4.939   3.597   7.762  0.2549 -0.0574  0.5361
16452SOL    HW150797   5.013   3.573   7.818  1.2273  0.6980 -0.3906
16452SOL    HW250798   4.933   3.525   7.698  0.5008  0.1094  0.3221
16453SOL     OW50799   3.733   1.947   2.399 -0.1565  0.0147 -0.0217
16453SOL    HW150800   3.648   1.946   2.443 -1.1179  1.3383 -1.6948
16453SOL    HW250801   3.792   1.988   2.463 -1.3758  1.4159  0.2647
16454SOL     OW50802   1.953   6.274   5.212  0.1470  0.2517 -0.6070
16454SOL    HW150803   2.013   6.203   5.233  0.0204 -0.0881 -1.3599
16454SOL    HW250804   2.009   6.341   5.172  0.1690  0.3244 -0.4559
16455SOL     OW50805   7.755   5.571   0.904  0.0766 -0.3117 -0.3320
16455SOL    HW150806   7.815   5.534   0.839 -1.3760  0.3140 -2.1061
16455SOL    HW250807   7.689   5.617   0.852 -1.4208 -0.1940  1.5870
16456SOL     OW50808   4.616   4.572   8.256  0.6756 -0.3217 -0.3477
16456SOL    HW150809   4.686   4.574   8.192  0.3693  0.2041 -0.6688
16456SOL    HW250810   4.645   4.632   8.325 -0.3487  1.5281 -1.4404
16457SOL     OW50811   2.531   4.475  11.392 -0.9844 -0.1225 -0.5851
16457SOL    HW150812   2.569   4.558  11.362 -0.5639 -0.3933 -0.8054
16457SOL    HW250813   2.553   4.412  11.323  1.5499 -1.1776  1.0549
16458SOL     OW50814   1.485   3.449   4.047 -0.1723  0.3452  0.3707
16458SOL    HW150815   1.428   3.410   4.113 -1.0186 -1.1111 -1.1314
16458SOL    HW250816   1.499   3.378   3.983  0.1872  1.8127 -1.2548
16459SOL     OW50817   1.886   0.955   2.655  0.3920 -0.2535 -0.2954
16459SOL    HW150818   1.916   0.873   2.694  0.8201  0.2786  0.5209
16459SOL    HW250819   1.794   0.939   2.634  0.1108 -0.5089  1.0822
16460SOL     OW50820   2.938   5.098   4.041  0.3895  0.3825  0.1282
16460SOL    HW150821   2.983   5.033   3.987 -0.1258  0.5562 -0.5105
16460SOL    HW250822   2.996   5.110   4.116  1.1997  0.2853 -0.4710
16461SOL     OW50823   2.350   2.895   6.971  0.8811 -0.1153  0.6055
16461SOL    HW150824   2.332   2.801   6.963  0.1154  0.0190  0.6822
16461SOL    HW250825   2.272   2.931   7.012  0.7757  0.6995 -0.2603
16462SOL     OW50826   2.565   5.853   1.814  0.6718 -0.6953 -0.6430
16462SOL    HW150827   2.620   5.871   1.738  0.2187  0.4527 -0.7101
16462SOL    HW250828   2.503   5.926   1.818  0.8344 -0.5962  0.9672
16463SOL     OW50829   1.572   3.650   5.721 -0.3012  0.4086  0.7714
16463SOL    HW150830   1.666   3.661   5.711 -0.2691  0.0098  0.6165
16463SOL    HW250831   1.555   3.675   5.812  0.0946 -0.3894  1.0789
16464SOL     OW50832   7.931   1.207   6.119 -0.1417  0.2398 -0.1715
16464SOL    HW150833   7.871   1.151   6.070 -1.2936 -0.5302  1.9691
16464SOL    HW250834   8.013   1.202   6.071 -0.4823 -2.5520 -0.6149
16465SOL     OW50835   5.010   0.681   8.033  0.0287  0.1237 -0.6052
16465SOL    HW150836   5.090   0.634   8.008 -0.2189 -1.1754  0.8911
16465SOL    HW250837   4.939   0.623   8.006 -0.2835 -0.4416  1.3133
16466SOL     OW50838   2.423   0.324   6.167  0.1019  0.7014  0.1955
16466SOL    HW150839   2.405   0.328   6.261 -2.9982  0.6243 -0.2772
16466SOL    HW250840   2.352   0.375   6.128  1.5229  1.0340 -2.1235
16467SOL     OW50841   0.209   5.183   4.209 -0.4459  0.0191 -0.0962
16467SOL    HW150842   0.258   5.213   4.133 -1.3488 -1.0711 -1.1705
16467SOL    HW250843   0.145   5.252   4.225 -2.2328 -0.9872 -2.2753
16468SOL     OW50844   7.048   4.342   1.235  0.2938  0.2759 -0.2506
16468SOL    HW150845   7.034   4.339   1.330  0.3879  1.3265 -0.1866
16468SOL    HW250846   7.014   4.428   1.209 -0.3227 -0.2703 -1.2763
16469SOL     OW50847   4.965   7.355   8.391 -0.3492 -0.5719  0.3545
16469SOL    HW150848   4.975   7.393   8.478 -1.7580 -0.8548  0.6601
16469SOL    HW250849   4.932   7.426   8.336 -0.5166 -0.6850  0.3080
16470SOL     OW50850   7.597   2.423   5.356  0.1577 -0.1279  0.3903
16470SOL    HW150851   7.555   2.494   5.307 -0.2431 -1.5504 -1.4576
16470SOL    HW250852   7.531   2.354   5.360  1.4732 -1.5004 -0.4480
16471SOL     OW50853   7.200   4.522  12.136 -0.6648 -0.4102 -0.0197
16471SOL    HW150854   7.235   4.601  12.177 -1.1296 -0.5599  0.7023
16471SOL    HW250855   7.108   4.543  12.120 -0.8645 -0.8972  0.4514
16472SOL     OW50856   0.984   0.966   9.448 -0.7995  0.6868 -0.1236
16472SOL    HW150857   0.898   1.008   9.458 -0.9974  0.4732 -0.8599
16472SOL    HW250858   1.016   0.998   9.364 -1.5183 -1.6138 -1.3350
16473SOL     OW50859   5.889   3.177   4.238  0.3297  0.3500  0.4114
16473SOL    HW150860   5.889   3.269   4.265  0.5921  0.3476  0.4271
16473SOL    HW250861   5.930   3.131   4.311  1.5020  0.4038 -0.1904
16474SOL     OW50862   5.817   1.861  12.284 -0.4510  0.0796 -0.0052
16474SOL    HW150863   5.756   1.910  12.338 -0.4918  1.1978 -1.0261
16474SOL    HW250864   5.760   1.811  12.224 -0.4074 -1.1508  0.9380
16475SOL     OW50865   4.564   2.893   4.012  0.1788 -0.6649  0.1191
16475SOL    HW150866   4.616   2.968   4.041 -2.0536  0.5646  1.1828
16475SOL    HW250867   4.526   2.921   3.929  0.4925 -1.2131 -0.2147
16476SOL     OW50868   6.087   7.129  10.438  0.1810  0.3080 -0.0722
16476SOL    HW150869   6.038   7.118  10.357 -0.4385  1.4846  0.1250
16476SOL    HW250870   6.021   7.134  10.507  0.6223  0.7987  0.3317
16477SOL     OW50871   4.205   3.623   7.979  0.1869 -0.8010  0.2098
16477SOL    HW150872   4.259   3.563   8.030 -0.3261 -1.2705  0.2091
16477SOL    HW250873   4.115   3.596   7.998 -0.1549  1.2739  1.8705
16478SOL     OW50874   5.747   4.824   9.064  0.3769  0.4565  0.3928
16478SOL    HW150875   5.683   4.753   9.054  1.8989 -1.1763  1.5164
16478SOL    HW250876   5.707   4.884   9.127  0.2843 -1.0275  1.8166
16479SOL     OW50877   7.462   2.592   5.175  0.2740  0.2306 -0.1845
16479SOL    HW150878   7.476   2.678   5.215 -0.1034  0.6323 -0.9048
16479SOL    HW250879   7.419   2.610   5.092  0.8011 -0.6190 -0.6597
16480SOL     OW50880   1.054   2.377   9.242  0.2286  0.9282  0.1773
16480SOL    HW150881   1.134   2.334   9.271  1.4261  1.2149 -2.4030
16480SOL    HW250882   1.081   2.465   9.216 -1.2438  1.5788  0.7252
16481SOL     OW50883   6.659   3.117   8.644  0.3202  0.0700 -0.3076
16481SOL    HW150884   6.656   3.039   8.589 -0.9506 -1.2237  1.4874
16481SOL    HW250885   6.567   3.136   8.664  0.6645  1.4685  0.0789
16482SOL     OW50886   5.244   0.823   5.704 -0.4014 -0.0125 -0.0636
16482SOL    HW150887   5.195   0.897   5.668 -0.9740 -0.3647 -0.0208
16482SOL    HW250888   5.239   0.755   5.636  0.5941  0.1681 -0.3442
16483SOL     OW50889   7.046   7.556  10.432  0.1056  0.2190  0.0563
16483SOL    HW150890   7.111   7.586  10.497  1.5329  0.1753 -1.2855
16483SOL    HW250891   7.076   7.595  10.350 -2.5724  1.6233 -0.3469
16484SOL     OW50892   0.884   4.573  12.302  0.0859 -0.4147 -0.4073
16484SOL    HW150893   0.977   4.589  12.287 -0.3798  1.4420 -1.6524
16484SOL    HW250894   0.839   4.632  12.241 -1.9110 -1.2919  0.1298
16485SOL     OW50895   7.669   2.562  10.153 -0.3275  0.9671 -0.3920
16485SOL    HW150896   7.602   2.593  10.213  0.2289 -0.0221  0.7891
16485SOL    HW250897   7.628   2.488  10.107  0.6596 -1.3194  2.1507
16486SOL     OW50898   1.323   5.357   9.130  0.4787 -0.1341 -0.1866
16486SOL    HW150899   1.376   5.277   9.129  1.2854  0.3876 -0.4664
16486SOL    HW250900   1.371   5.419   9.075 -0.1970  0.5083 -0.0817
16487SOL     OW50901   2.628   6.664   6.922  0.6405 -0.2665  0.3313
16487SOL    HW150902   2.540   6.679   6.887  0.6073  2.1574  1.1928
16487SOL    HW250903   2.627   6.573   6.952 -0.9425 -0.8669 -1.3441
16488SOL     OW50904   0.050   2.643   9.525 -0.1530 -0.1198 -0.0591
16488SOL    HW150905  -0.034   2.685   9.542 -0.0991 -0.2404  0.5532
16488SOL    HW250906   0.096   2.703   9.466 -0.9321 -0.3885 -0.9421
16489SOL     OW50907   6.137   7.311  11.864  0.0922 -0.2506 -0.4362
16489SOL    HW150908   6.143   7.400  11.828 -1.4256  0.2237  0.3935
16489SOL    HW250909   6.209   7.306  11.927 -1.2335  1.2894  1.2989
16490SOL     OW50910   1.165   7.897   6.798  0.3806  0.1245  0.3452
16490SOL    HW150911   1.153   7.982   6.757 -2.3735 -0.2005  0.3320
16490SOL    HW250912   1.119   7.903   6.881 -1.1478 -1.7392 -0.2844
16491SOL     OW50913   5.147   0.668  11.801  0.3857 -0.3136 -0.1601
16491SOL    HW150914   5.066   0.682  11.851 -0.2768 -0.9840 -1.0162
16491SOL    HW250915   5.173   0.756  11.774 -0.2043 -0.1097 -0.0879
16492SOL     OW50916   0.201   6.997   2.741  0.3505  0.5856  0.6668
16492SOL    HW150917   0.214   6.997   2.836 -0.2224 -1.5068  0.7820
16492SOL    HW250918   0.190   6.905   2.718 -0.7523  1.1451 -1.2573
16493SOL     OW50919   0.903   1.636   8.446  0.4128  0.3315 -0.1508
16493SOL    HW150920   0.978   1.632   8.506 -1.2847  2.1311  2.3228
16493SOL    HW250921   0.933   1.689   8.373  1.7276  0.5419  0.5174
16494SOL     OW50922   2.990   3.218   4.867  0.3627  0.6279 -0.0510
16494SOL    HW150923   2.962   3.309   4.877 -0.2203  0.4381  0.0554
16494SOL    HW250924   2.925   3.167   4.915 -0.0036  0.0551 -1.1132
16495SOL     OW50925   4.658   1.238   1.549 -0.2125  0.2337  0.2779
16495SOL    HW150926   4.635   1.330   1.561 -0.1908  0.0944  1.5264
16495SOL    HW250927   4.597   1.191   1.607  0.3435 -0.4642  0.3053
16496SOL     OW50928   0.453   6.107  10.227  0.0767 -0.6399 -0.3470
16496SOL    HW150929   0.480   6.198  10.235 -0.7516 -0.5202  1.9000
16496SOL    HW250930   0.396   6.105  10.150 -1.4247  1.1987  0.6313
16497SOL     OW50931   7.620   7.769   4.554  0.2788  0.3916 -0.0320
16497SOL    HW150932   7.638   7.696   4.613  0.0418  1.1265  0.9810
16497SOL    HW250933   7.533   7.800   4.580  0.3160  0.9473 -0.5389
16498SOL     OW50934   4.146   5.635  10.629 -0.2013  0.2774 -0.3744
16498SOL    HW150935   4.065   5.591  10.655  0.5713 -1.4403 -0.7230
16498SOL    HW250936   4.147   5.716  10.681 -0.5685 -1.2091  2.1421
16499SOL     OW50937   2.367   1.629   0.729  0.0667  0.1436  0.2411
16499SOL    HW150938   2.440   1.689   0.742  1.2613 -1.1936 -0.1403
16499SOL    HW250939   2.361   1.580   0.812 -1.4008  1.2483  0.8477
16500SOL     OW50940   1.640   5.462  10.130 -0.4042  0.3008 -0.2603
16500SOL    HW150941   1.592   5.410  10.065 -0.1216 -0.3469  0.0368
16500SOL    HW250942   1.673   5.397  10.192  0.0956  0.8252  0.0279
16501SOL     OW50943   3.010   0.409  11.337 -0.0331 -0.3364 -0.1054
16501SOL    HW150944   2.943   0.431  11.272  0.3687  0.9501 -0.1146
16501SOL    HW250945   2.964   0.354  11.401 -0.3882 -1.7714 -1.5423
16502SOL     OW50946   3.951   7.234   0.356  0.1062 -0.3765 -0.5090
16502SOL    HW150947   4.001   7.269   0.283 -0.3644 -0.0283 -0.6681
16502SOL    HW250948   3.861   7.264   0.341  0.0687  0.0064  0.3938
16503SOL     OW50949   4.867   6.369   9.514  0.3653  0.3685  0.1079
16503SOL    HW150950   4.936   6.309   9.541 -0.0833  1.0501  3.0265
16503SOL    HW250951   4.805   6.314   9.465  0.4830 -1.3569  1.7922
16504SOL     OW50952   6.863   5.785   1.673  0.4604  0.1264  0.2308
16504SOL    HW150953   6.820   5.866   1.698  0.6694  0.2430  0.2107
16504SOL    HW250954   6.878   5.739   1.756  1.1531  0.5129  0.3301
16505SOL     OW50955   3.843   2.764   2.389 -0.1316  0.1390  0.1816
16505SOL    HW150956   3.759   2.730   2.359 -0.2298 -0.3264  0.9824
16505SOL    HW250957   3.906   2.693   2.372  0.1061  0.4676 -0.3720
16506SOL     OW50958   7.394   2.394  11.232  0.2552  0.2278  0.1648
16506SOL    HW150959   7.447   2.377  11.154  2.1460  1.7503  1.0540
16506SOL    HW250960   7.425   2.330  11.296  0.7499  0.8603  0.5623
16507SOL     OW50961   1.975   1.088   6.935  0.0858 -0.0764  0.2358
16507SOL    HW150962   2.038   1.137   6.988  0.5409 -0.8717  0.4425
16507SOL    HW250963   2.010   0.999   6.932 -0.4953 -0.2900 -0.5081
16508SOL     OW50964   4.486   6.494   1.869 -0.3150  0.5633  0.1553
16508SOL    HW150965   4.547   6.421   1.869 -1.2708 -0.2532 -0.2020
16508SOL    HW250966   4.454   6.500   1.959 -1.3049 -0.3918 -0.1145
16509SOL     OW50967   2.339   5.770   2.738 -0.1629 -0.0175 -0.0764
16509SOL    HW150968   2.260   5.788   2.688  0.0656  2.0498  0.2097
16509SOL    HW250969   2.391   5.713   2.681 -1.3185 -0.4231 -0.7625
16510SOL     OW50970   7.368   5.415  11.952  0.0399 -0.5189  0.2152
16510SOL    HW150971   7.438   5.349  11.954 -0.4415 -1.0278  1.4006
16510SOL    HW250972   7.331   5.407  11.864 -0.3559 -2.2326  0.4882
16511SOL     OW50973   0.786   0.739  11.971  0.3295  0.1726 -0.0281
16511SOL    HW150974   0.771   0.773  11.883 -0.6189 -0.1084  0.0211
16511SOL    HW250975   0.848   0.800  12.010  1.2790 -0.0588 -1.1136
16512SOL     OW50976   1.528   6.127   2.444  0.6711 -0.4846  0.2481
16512SOL    HW150977   1.604   6.119   2.386  1.2966  1.2357  0.7609
16512SOL    HW250978   1.561   6.102   2.530 -0.4504 -3.8200 -0.1238
16513SOL     OW50979   1.436   1.543   7.670  0.3648 -0.3976  0.0829
16513SOL    HW150980   1.414   1.614   7.729  0.4299  0.9575 -1.4486
16513SOL    HW250981   1.478   1.477   7.726  0.2005  0.7051  1.5609
16514SOL     OW50982   4.801   6.767   9.703 -0.2882 -0.0064  0.5759
16514SOL    HW150983   4.768   6.761   9.613 -2.2648  1.7983  1.0946
16514SOL    HW250984   4.894   6.789   9.693 -0.2403 -0.7864 -0.9966
16515SOL     OW50985   4.941   2.769  11.035 -0.0777  0.1482 -0.3098
16515SOL    HW150986   4.903   2.834  11.094 -0.5063  0.1575 -0.5891
16515SOL    HW250987   5.019   2.812  10.999  0.1488  0.1669  0.1905
16516SOL     OW50988   1.799   4.382   9.200  0.3703  0.1065  0.4620
16516SOL    HW150989   1.831   4.296   9.228  1.2873  0.4702  0.5712
16516SOL    HW250990   1.711   4.387   9.236 -1.1547 -2.2325 -2.4859
16517SOL     OW50991   2.623   0.034  12.187 -0.4623  0.0610  0.6697
16517SOL    HW150992   2.688   0.093  12.150 -0.8637 -0.1285 -0.3787
16517SOL    HW250993   2.649  -0.053  12.155 -2.0198  0.1450 -1.0265
16518SOL     OW50994   2.993   2.151   5.095 -0.1406 -0.6426 -0.4180
16518SOL    HW150995   3.070   2.204   5.075 -0.2162 -0.2861  0.2012
16518SOL    HW250996   2.935   2.210   5.143  0.5312 -1.7489  1.8931
16519SOL     OW50997   5.278   5.139   1.397  0.7427 -0.3493  0.6748
16519SOL    HW150998   5.246   5.228   1.388  0.2022 -0.7220 -2.4747
16519SOL    HW250999   5.369   5.144   1.367  0.4971 -0.9181 -0.2172
16520SOL     OW51000   5.284   3.641   8.385 -0.1595  0.3236  0.6513
16520SOL    HW151001   5.215   3.686   8.336 -0.9605 -1.4304  0.0710
16520SOL    HW251002   5.248   3.633   8.473 -0.0996  0.6409  0.7048
16521SOL     OW51003   3.060   7.042   3.938  0.0326  0.1993 -0.3351
16521SOL    HW151004   3.064   7.101   4.012  0.1624  0.4551 -0.5455
16521SOL    HW251005   3.125   6.974   3.956  0.4323  0.5462 -0.4622
16522SOL     OW51006   3.172   5.947   9.231  0.3287 -0.6511  0.0282
16522SOL    HW151007   3.131   5.915   9.311  0.5568 -1.4166 -0.1472
16522SOL    HW251008   3.192   6.039   9.248 -0.3933 -0.5858  0.5366
16523SOL     OW51009   7.088   7.940   9.418  0.4664  0.2026 -0.4586
16523SOL    HW151010   7.059   7.991   9.343 -0.2094  2.6002  1.3242
16523SOL    HW251011   7.173   7.978   9.442  0.3534 -0.0595  0.4077
16524SOL     OW51012   0.207   1.713  10.138  0.1414  0.3226 -0.0693
16524SOL    HW151013   0.162   1.643  10.091  1.0004  1.4229 -2.6881
16524SOL    HW251014   0.298   1.684  10.145  0.9442  1.8717 -2.8896
16525SOL     OW51015   6.087   5.996   6.229 -0.0356 -0.4041 -0.1603
16525SOL    HW151016   6.022   6.062   6.206 -0.2703 -0.8031 -0.6850
16525SOL    HW251017   6.157   6.044   6.271 -0.6117  0.0545  0.2942
16526SOL     OW51018   3.215   6.235   6.077 -0.0623  0.1468 -0.0961
16526SOL    HW151019   3.302   6.206   6.103 -0.8747 -1.6899  0.7038
16526SOL    HW251020   3.201   6.315   6.128  0.1676 -0.9436  1.7904
16527SOL     OW51021   0.769   2.407   3.007  0.2755  0.1307  0.1784
16527SOL    HW151022   0.847   2.417   2.951 -0.4727 -0.4826 -1.0290
16527SOL    HW251023   0.794   2.340   3.071  1.0160  0.5408  0.3297
16528SOL     OW51024   5.498   4.907   0.181  0.0462  0.3792 -0.0749
16528SOL    HW151025   5.588   4.884   0.156 -0.3234 -0.4150 -0.7409
16528SOL    HW251026   5.473   4.976   0.120  0.5195  1.3021  0.7379
16529SOL     OW51027   6.368   7.720   5.673  0.4286  0.2126  0.4351
16529SOL    HW151028   6.297   7.697   5.733  0.6821 -0.6824  0.4209
16529SOL    HW251029   6.392   7.636   5.632  1.8134  0.4031  0.8041
16530SOL     OW51030   7.004   7.916   6.189 -0.2644 -0.1157  0.4794
16530SOL    HW151031   6.963   7.855   6.251  1.0848 -0.4723  1.0649
16530SOL    HW251032   7.054   7.976   6.244  0.3999 -0.0058 -0.2261
16531SOL     OW51033   5.486   3.109  11.685  0.1799  0.4937  0.3938
16531SOL    HW151034   5.567   3.086  11.730  0.3479  0.3445  0.0130
16531SOL    HW251035   5.417   3.075  11.742  0.3973  0.1256  0.4414
16532SOL     OW51036   2.477   3.094  10.186  0.0371  0.1000  0.4679
16532SOL    HW151037   2.556   3.039  10.195 -0.3045 -0.9566 -2.0446
16532SOL    HW251038   2.405   3.031  10.185 -0.2851  0.2295 -3.7454
16533SOL     OW51039   2.284   4.155   9.358  0.2057 -0.2024 -0.7380
16533SOL    HW151040   2.222   4.083   9.351  0.5534 -0.4415 -1.3685
16533SOL    HW251041   2.243   4.227   9.309 -0.2795  0.1345  0.1414
16534SOL     OW51042   5.802   1.202   5.012  0.0194  0.1185  0.1859
16534SOL    HW151043   5.811   1.232   5.102 -0.9796  2.3261 -0.3828
16534SOL    HW251044   5.887   1.222   4.972 -0.0601  0.5963  0.2532
16535SOL     OW51045   6.067   2.905   3.982  0.2652  0.4338  0.5327
16535SOL    HW151046   6.155   2.880   4.007  0.6586  0.8944 -0.3473
16535SOL    HW251047   6.010   2.861   4.045  1.1882  1.5332  2.2193
16536SOL     OW51048   5.240   3.711   6.028  0.0356  0.2517 -0.2130
16536SOL    HW151049   5.235   3.784   5.967 -1.2692  3.0709  2.9564
16536SOL    HW251050   5.151   3.676   6.032 -0.6655  2.0657  2.1033
16537SOL     OW51051   7.209   7.686   2.639 -0.5548 -0.0171  0.4599
16537SOL    HW151052   7.207   7.775   2.603  1.5580  0.1142  0.5717
16537SOL    HW251053   7.143   7.639   2.589 -1.1188  1.3917 -0.1954
16538SOL     OW51054   7.068   3.148   7.581 -0.3246 -0.5165 -0.1492
16538SOL    HW151055   7.089   3.093   7.657 -0.4964  1.0618  1.1039
16538SOL    HW251056   7.110   3.232   7.600 -3.1243  1.0113 -0.1643
16539SOL     OW51057   0.937   5.532   0.148 -0.1041 -0.3031  0.0406
16539SOL    HW151058   0.849   5.508   0.177  0.5113 -1.6997  0.8701
16539SOL    HW251059   0.989   5.535   0.229  0.6801  0.1899 -0.4689
16540SOL     OW51060   4.615   6.229   1.178 -0.1789 -0.0584  0.0522
16540SOL    HW151061   4.671   6.285   1.126 -0.3612  0.4293  0.3775
16540SOL    HW251062   4.672   6.196   1.248  0.4385 -1.8082 -1.1944
16541SOL     OW51063   6.511   2.330   3.625  0.0490  0.9517 -0.0640
16541SOL    HW151064   6.582   2.274   3.655 -0.5328  0.7772  1.0170
16541SOL    HW251065   6.531   2.416   3.661 -0.6305  0.7495  0.8296
16542SOL     OW51066   1.090   5.639  11.257  0.0640  0.1079 -0.0611
16542SOL    HW151067   1.047   5.583  11.193  0.5720  0.6733 -0.9252
16542SOL    HW251068   1.022   5.662  11.321 -0.2713 -1.0367  0.0004
16543SOL     OW51069   6.545   5.356   6.366 -0.6450  0.1923 -0.1685
16543SOL    HW151070   6.534   5.420   6.296  0.8450  1.4071  0.6355
16543SOL    HW251071   6.633   5.321   6.353 -0.0946  0.8795  1.3904
16544SOL     OW51072   2.901   5.099   2.493 -0.1261 -0.3795  0.8217
16544SOL    HW151073   2.832   5.135   2.550  1.3368  0.6706  1.9945
16544SOL    HW251074   2.971   5.073   2.554  1.2973  0.3299 -0.4611
16545SOL     OW51075   3.463   1.493  11.601 -0.2266  1.0054 -0.2274
16545SOL    HW151076   3.512   1.572  11.623  3.3468 -0.8548 -0.7361
16545SOL    HW251077   3.445   1.452  11.686  0.8890  0.8041 -0.0634
16546SOL     OW51078   6.968   5.564   7.826 -0.9545 -0.4880  0.2954
16546SOL    HW151079   6.894   5.618   7.852 -0.0431  2.0144 -1.8224
16546SOL    HW251080   7.041   5.595   7.881 -0.5670  0.0741 -0.5121
16547SOL     OW51081   3.445   4.525  11.287  0.0941  0.1615  0.2500
16547SOL    HW151082   3.430   4.523  11.381 -0.1616  0.8323  0.2288
16547SOL    HW251083   3.538   4.541  11.277  0.2966 -0.8778  0.3847
16548SOL     OW51084   2.321   0.733   6.583  0.0275  0.1018 -0.2389
16548SOL    HW151085   2.266   0.795   6.535  0.4157 -0.1348 -1.0061
16548SOL    HW251086   2.377   0.787   6.638 -1.5617  0.3315  1.2544
16549SOL     OW51087   5.311   1.845  11.773  0.0603  0.2854 -0.2502
16549SOL    HW151088   5.265   1.905  11.715 -2.7739  0.8313  2.2916
16549SOL    HW251089   5.296   1.758  11.735  0.1658  0.7785 -1.4617
16550SOL     OW51090   1.848   4.506   7.386 -0.2210  0.0196  0.2326
16550SOL    HW151091   1.857   4.455   7.306 -0.5350  1.2924 -0.6460
16550SOL    HW251092   1.938   4.514   7.420 -0.0223 -0.1214 -0.2545
16551SOL     OW51093   7.264   2.029   3.497  0.3472  0.0162 -0.1155
16551SOL    HW151094   7.185   1.975   3.498 -0.2249  0.7693 -1.6465
16551SOL    HW251095   7.327   1.980   3.551 -0.4026 -1.7997 -0.7953
16552SOL     OW51096   0.847   1.189   3.300  0.4057 -0.1862  0.2024
16552SOL    HW151097   0.907   1.122   3.333 -0.0050  0.0794  1.5520
16552SOL    HW251098   0.808   1.227   3.379 -0.9767  0.1706 -0.6289
16553SOL     OW51099   2.318   2.802   7.236  0.1355 -0.1358 -0.7897
16553SOL    HW151100   2.399   2.829   7.193  1.2089  0.0961  1.2579
16553SOL    HW251101   2.288   2.881   7.282  0.3546 -0.9460  0.8163
16554SOL     OW51102   7.311   4.531  10.460 -0.6798 -0.3507  0.1595
16554SOL    HW151103   7.362   4.576  10.528 -0.1534 -0.6568 -0.0276
16554SOL    HW251104   7.228   4.579  10.457 -0.8393 -0.5327  1.2430
16555SOL     OW51105   5.877   1.469   7.125 -0.1232 -0.2142  0.1814
16555SOL    HW151106   5.922   1.537   7.075  1.0715  0.3682  1.9746
16555SOL    HW251107   5.790   1.465   7.087  0.0513  1.7341 -0.5097
16556SOL     OW51108   7.844   6.198  11.779  0.4973  0.4468 -0.2549
16556SOL    HW151109   7.815   6.124  11.832  1.1328 -0.4743 -1.1495
16556SOL    HW251110   7.938   6.204  11.796 -0.1114  3.9903  3.3773
16557SOL     OW51111   5.769   0.435   0.547  0.2531  0.3681  0.9722
16557SOL    HW151112   5.786   0.524   0.517 -0.3583  0.7512  1.7315
16557SOL    HW251113   5.850   0.388   0.531 -0.1948  0.3939 -1.7844
16558SOL     OW51114   6.332   1.685   4.015  0.3444 -0.3155 -0.5872
16558SOL    HW151115   6.320   1.608   3.959  0.4401  0.7367 -2.1069
16558SOL    HW251116   6.247   1.697   4.057  0.6869 -1.9772  0.6797
16559SOL     OW51117   4.320   6.119   9.334 -0.0005 -0.2599  0.6006
16559SOL    HW151118   4.243   6.070   9.364  1.7607 -2.2216  2.2373
16559SOL    HW251119   4.308   6.207   9.370 -0.9445 -0.8613  1.8510
16560SOL     OW51120   5.877   2.302   7.856 -0.0677 -0.1935 -0.1515
16560SOL    HW151121   5.908   2.257   7.778  3.9471  1.7184  0.0661
16560SOL    HW251122   5.852   2.389   7.826  0.5447  0.2237  0.4933
16561SOL     OW51123   3.695   1.799   4.782 -0.1004  0.1589 -0.8060
16561SOL    HW151124   3.645   1.850   4.718 -1.8969  0.1436  0.4927
16561SOL    HW251125   3.713   1.861   4.853  0.6765 -0.1658 -0.7058
16562SOL     OW51126   5.785   2.569   6.375 -0.0689 -0.0131  0.0451
16562SOL    HW151127   5.865   2.523   6.399  0.3856  0.3467 -0.7371
16562SOL    HW251128   5.815   2.649   6.332 -0.8330 -0.1786 -0.8448
16563SOL     OW51129   3.314   5.616   8.159 -0.0606  0.5935 -0.9375
16563SOL    HW151130   3.383   5.679   8.178  0.2884  0.0137 -0.2234
16563SOL    HW251131   3.237   5.650   8.204  0.4683 -0.1635  0.6323
16564SOL     OW51132   6.932   0.813   0.119 -0.2055  0.3030 -0.0404
16564SOL    HW151133   6.891   0.868   0.186  0.5304  0.2850  0.4323
16564SOL    HW251134   6.956   0.733   0.165 -1.2515 -0.4356 -0.7168
16565SOL     OW51135   4.445   5.351  10.066 -0.4231  0.0385 -0.2626
16565SOL    HW151136   4.467   5.260  10.085  0.5063  0.4161  0.5283
16565SOL    HW251137   4.514   5.402  10.108 -2.1727  1.2192  1.3277
16566SOL     OW51138   6.991   7.509   7.644 -0.0932 -0.0368  0.9041
16566SOL    HW151139   6.988   7.599   7.613 -0.0106 -1.0013 -2.1969
16566SOL    HW251140   6.901   7.490   7.671 -0.5999  0.3704 -0.4173
16567SOL     OW51141   2.742   3.987   9.951  0.2117 -0.1658  0.7456
16567SOL    HW151142   2.780   3.901   9.932  2.2988  1.0826 -1.3029
16567SOL    HW251143   2.662   3.990   9.898  0.2488 -0.7418  0.6533
16568SOL     OW51144   5.013   7.697   6.704 -0.1465  0.3091 -0.0638
16568SOL    HW151145   5.039   7.641   6.777 -0.6758 -0.5060 -0.4825
16568SOL    HW251146   4.940   7.749   6.737 -0.0476  0.3219  0.1383
16569SOL     OW51147   1.924   4.572   2.336  0.2691 -0.0810  0.0853
16569SOL    HW151148   1.954   4.496   2.286 -2.7289 -0.7209 -0.9701
16569SOL    HW251149   1.890   4.535   2.418 -0.5727  0.1736 -0.1400
16570SOL     OW51150   4.851   6.488   3.438  0.1586 -0.0592  0.1638
16570SOL    HW151151   4.883   6.575   3.414 -1.1701  0.9060  1.7275
16570SOL    HW251152   4.782   6.504   3.501  0.7226 -2.3223  1.4617
16571SOL     OW51153   4.619   5.044   8.507  0.1108 -0.0676 -0.6328
16571SOL    HW151154   4.626   5.036   8.602  1.6734 -0.5479 -0.7570
16571SOL    HW251155   4.529   5.073   8.492 -0.6962 -1.5789  0.8830
16572SOL     OW51156   5.634   2.700   4.337 -0.3051 -0.0486  0.2886
16572SOL    HW151157   5.598   2.707   4.426  0.6226 -1.4985  0.8181
16572SOL    HW251158   5.720   2.659   4.349 -0.4962 -1.0088 -1.3523
16573SOL     OW51159   4.715   5.100   2.576 -0.3983 -0.4598  0.3278
16573SOL    HW151160   4.690   5.185   2.542  0.9079  0.5011  1.6324
16573SOL    HW251161   4.633   5.050   2.581 -1.1702  0.7043 -0.4677
16574SOL     OW51162   3.606   4.300  10.235 -0.1632 -0.3306  0.2829
16574SOL    HW151163   3.530   4.352  10.259 -0.5364 -0.9747  0.5064
16574SOL    HW251164   3.647   4.277  10.318  1.1814  1.3100  0.1315
16575SOL     OW51165   4.309   7.232   7.593  0.0875  0.0022 -0.0384
16575SOL    HW151166   4.350   7.314   7.566  2.1955 -0.7510  0.6813
16575SOL    HW251167   4.363   7.164   7.553  0.2329 -1.0584  1.8317
16576SOL     OW51168   0.834   4.988   9.914 -0.6928  0.5637  0.1379
16576SOL    HW151169   0.912   4.960   9.865  0.1711  1.5701  0.8692
16576SOL    HW251170   0.760   4.958   9.861  0.1522  2.8868 -2.6200
16577SOL     OW51171   4.693   7.777  10.275  0.3516  0.2402 -0.7572
16577SOL    HW151172   4.640   7.749  10.349 -0.8209  1.5645 -1.0314
16577SOL    HW251173   4.700   7.872  10.286  2.7397  0.1158 -0.7257
16578SOL     OW51174   4.088   5.473   7.844 -0.2531 -0.5464  0.2789
16578SOL    HW151175   4.021   5.542   7.849 -0.3137 -0.5861  0.0363
16578SOL    HW251176   4.164   5.510   7.890  0.2240  0.2763 -1.0918
16579SOL     OW51177   2.761   6.001   0.767  0.3684  0.7034  0.3356
16579SOL    HW151178   2.802   6.068   0.821  2.1052 -0.3209  0.3557
16579SOL    HW251179   2.816   5.994   0.689  0.4613 -0.9364  0.5010
16580SOL     OW51180   3.570   1.410   1.118 -0.1166 -0.2309 -0.1832
16580SOL    HW151181   3.555   1.408   1.213 -0.0667  3.2042  0.0323
16580SOL    HW251182   3.486   1.384   1.080 -0.9096  0.7020  0.8535
16581SOL     OW51183   7.134   6.873   2.322  0.3488 -0.3609 -0.0516
16581SOL    HW151184   7.078   6.933   2.372  1.1778  1.2829 -1.0183
16581SOL    HW251185   7.074   6.804   2.292 -0.5167 -0.3627  1.5882
16582SOL     OW51186   4.428   7.759   1.802 -0.1704 -0.1360 -0.0193
16582SOL    HW151187   4.479   7.762   1.721  0.4689  1.5343  0.4033
16582SOL    HW251188   4.435   7.847   1.838 -1.3807 -0.5350  1.2936
16583SOL     OW51189   7.182   6.998  11.920  0.0517 -0.4488  0.2241
16583SOL    HW151190   7.219   6.918  11.882  0.5422 -0.1295  0.0234
16583SOL    HW251191   7.244   7.022  11.989 -1.5078 -1.7840  2.2117
16584SOL     OW51192   3.771   6.894   2.672 -0.1849  0.4360 -0.4288
16584SOL    HW151193   3.724   6.812   2.660  0.2675  0.3310 -1.6207
16584SOL    HW251194   3.855   6.880   2.628  0.1403  1.3239 -0.1118
16585SOL     OW51195   1.628   0.577   1.331 -0.5698  0.2320  0.5635
16585SOL    HW151196   1.690   0.611   1.395 -0.3708  1.7674 -0.3872
16585SOL    HW251197   1.683   0.541   1.261 -0.7598  0.6437  0.2012
16586SOL     OW51198   7.321   5.724   1.354  0.0816  0.4605  0.0638
16586SOL    HW151199   7.321   5.818   1.337  1.8410  1.2202  3.4226
16586SOL    HW251200   7.246   5.710   1.410  1.6320  0.5938  2.3053
16587SOL     OW51201   3.400   3.762  12.271  0.0959 -0.1601  0.2956
16587SOL    HW151202   3.467   3.780  12.205 -0.0783 -1.8126 -0.3828
16587SOL    HW251203   3.446   3.770  12.355  0.9897 -0.6372 -0.1319
16588SOL     OW51204   6.876   3.570   6.492  0.3303 -0.0290  0.2136
16588SOL    HW151205   6.922   3.505   6.546 -0.6267  0.8870  2.2231
16588SOL    HW251206   6.920   3.653   6.512  0.9019  0.1503 -1.5857
16589SOL     OW51207   6.752   6.012   2.877 -0.2976  0.4375 -0.0403
16589SOL    HW151208   6.720   6.035   2.964 -1.4009  2.1913 -0.8556
16589SOL    HW251209   6.718   6.080   2.820 -2.7489 -2.5583 -2.5197
16590SOL     OW51210   1.490   2.669   5.319 -0.1269 -0.2971 -0.5418
16590SOL    HW151211   1.566   2.619   5.350 -0.2029 -0.6200 -0.8659
16590SOL    HW251212   1.519   2.760   5.322  0.3059 -0.4247 -0.7567
16591SOL     OW51213   1.999   6.812   7.228  0.0120  0.1964 -0.4497
16591SOL    HW151214   2.076   6.757   7.237  0.2370  0.4171 -0.9786
16591SOL    HW251215   1.935   6.774   7.287  0.7903  0.4818  0.6080
16592SOL     OW51216   7.682   0.201   0.338 -0.1165  0.3550  0.0256
16592SOL    HW151217   7.626   0.125   0.324  0.3566  0.1235 -0.6586
16592SOL    HW251218   7.631   0.258   0.396 -0.4326 -0.5220  0.6170
16593SOL     OW51219   7.690   7.363   7.406 -0.1966  0.1415  0.1671
16593SOL    HW151220   7.780   7.392   7.390 -0.0752 -0.6584 -0.6487
16593SOL    HW251221   7.696   7.268   7.408 -0.8782  0.1018  1.0868
16594SOL     OW51222   4.150   3.624   6.617  0.1188  0.1290  0.3190
16594SOL    HW151223   4.128   3.714   6.594  0.2978 -0.0386 -0.5149
16594SOL    HW251224   4.197   3.631   6.700 -0.2065  0.7692  0.4524
16595SOL     OW51225   5.005   7.765  10.607 -0.1795  0.8047 -0.3585
16595SOL    HW151226   4.931   7.706  10.592 -1.2399  1.5931  1.4734
16595SOL    HW251227   5.009   7.819  10.527 -1.4196  0.5774 -0.5868
16596SOL     OW51228   5.957   1.456  11.431  0.5735  0.0514  0.2522
16596SOL    HW151229   5.941   1.493  11.519  0.3921  0.6634 -0.0330
16596SOL    HW251230   5.869   1.438  11.397  0.6104  0.5745 -0.1224
16597SOL     OW51231   2.404   7.256   4.028  0.1126  0.6319  0.2150
16597SOL    HW151232   2.317   7.250   4.067  0.4659  1.4784  1.1601
16597SOL    HW251233   2.395   7.322   3.959 -0.8184 -1.7194 -2.1027
16598SOL     OW51234   7.582   7.684  12.161 -0.2699 -0.0411 -1.2592
16598SOL    HW151235   7.533   7.621  12.214  0.2478 -0.3535 -1.1405
16598SOL    HW251236   7.560   7.769  12.199  1.4561 -0.3618  0.6719
16599SOL     OW51237   0.886   6.116  10.949 -0.0901  0.3505 -0.5899
16599SOL    HW151238   0.879   6.108  10.854  2.5074 -1.4541 -0.7530
16599SOL    HW251239   0.859   6.030  10.982  1.3360  0.1098  0.0531
16600SOL     OW51240   5.936   5.891   4.263  0.2462  0.2435  1.0282
16600SOL    HW151241   5.905   5.810   4.303 -0.9206  0.9956  1.7159
16600SOL    HW251242   6.031   5.881   4.256 -0.0381 -2.0286 -0.8290
16601SOL     OW51243   3.988   0.735   9.363  0.5203 -0.2097 -0.0925
16601SOL    HW151244   3.904   0.763   9.397  0.3747  1.1174 -1.4515
16601SOL    HW251245   4.048   0.740   9.438 -0.1445  0.9375  0.3783
16602SOL     OW51246   7.811   6.416   9.057  0.2135 -0.3782 -0.2858
16602SOL    HW151247   7.892   6.466   9.068  0.7216 -1.0568 -0.8071
16602SOL    HW251248   7.761   6.464   8.991 -0.0534  0.3303  0.4261
16603SOL     OW51249   7.722   2.146   0.620  0.0388 -0.4445  0.0232
16603SOL    HW151250   7.739   2.093   0.698  0.3561  0.9540  0.9408
16603SOL    HW251251   7.684   2.227   0.653 -0.7357 -0.1960 -1.3723
16604SOL     OW51252   0.057   0.280   7.152  0.6855  0.1688  0.1987
16604SOL    HW151253   0.133   0.281   7.094  0.2441 -3.2021 -0.6548
16604SOL    HW251254  -0.010   0.330   7.104  1.8334  1.8993  0.2934
16605SOL     OW51255   4.212   0.382   9.853 -0.2754  0.6012 -0.6741
16605SOL    HW151256   4.173   0.295   9.849 -1.8762  1.2977 -1.1361
16605SOL    HW251257   4.139   0.439   9.878  0.9875  1.6687  0.7412
16606SOL     OW51258   7.521   4.214   5.353 -0.0528  0.5326 -0.3284
16606SOL    HW151259   7.495   4.257   5.272 -0.7119  2.4987  0.8515
16606SOL    HW251260   7.438   4.189   5.394  0.3011 -1.2798 -0.6442
16607SOL     OW51261   4.140   4.017   5.590 -0.1582  0.4711 -0.4448
16607SOL    HW151262   4.128   4.106   5.558  0.1642  0.9247  0.6444
16607SOL    HW251263   4.124   3.961   5.514  1.8166  1.5530 -1.7514
16608SOL     OW51264   0.999   6.730   4.585  0.3973  0.0142  0.0862
16608SOL    HW151265   0.991   6.784   4.663  0.4047 -2.8967  2.2795
16608SOL    HW251266   0.910   6.722   4.552  0.1840  0.1847  0.6069
16609SOL     OW51267   0.927   1.587   1.254  0.0725 -0.5280  0.4868
16609SOL    HW151268   0.984   1.661   1.233  0.4744 -1.0891 -0.4283
16609SOL    HW251269   0.908   1.546   1.170 -1.6084 -0.4236  0.7731
16610SOL     OW51270   3.819   7.414   6.445 -0.1405  0.7672 -0.2255
16610SOL    HW151271   3.740   7.436   6.494 -1.1519 -1.3204 -0.7999
16610SOL    HW251272   3.798   7.435   6.354  0.2889  0.9674 -0.2842
16611SOL     OW51273   5.138   7.460  11.169  0.6834  0.4476 -0.0625
16611SOL    HW151274   5.219   7.483  11.123  0.3724 -0.9803 -1.3887
16611SOL    HW251275   5.158   7.379  11.215  0.2705  0.5643  0.3297
16612SOL     OW51276   1.530   6.019   5.049 -0.6184  0.4429  0.3919
16612SOL    HW151277   1.508   6.015   5.142  1.7114 -1.1484  0.9727
16612SOL    HW251278   1.600   6.084   5.044  1.1481 -1.3775  0.2772
16613SOL     OW51279   2.905   5.828   9.971 -1.0731 -0.4314  0.0501
16613SOL    HW151280   2.972   5.812   9.905 -0.9383  0.8245 -0.1427
16613SOL    HW251281   2.825   5.845   9.921 -0.9733  0.5161  0.2018
16614SOL     OW51282   5.537   4.208   8.187 -0.8511 -0.6779 -0.6718
16614SOL    HW151283   5.485   4.264   8.245 -1.2149 -2.4289  0.7707
16614SOL    HW251284   5.601   4.268   8.147 -0.7365  0.6590  1.3758
16615SOL     OW51285   4.906   6.121   3.828  0.3094  0.5064  0.3415
16615SOL    HW151286   4.914   6.063   3.752 -0.4780  0.5060  0.2465
16615SOL    HW251287   4.848   6.191   3.799  0.1867  0.6306  0.8733
16616SOL     OW51288   0.052   6.123  12.188  0.4916 -0.0267  0.0674
16616SOL    HW151289   0.109   6.192  12.153 -0.2522  0.5478 -0.0379
16616SOL    HW251290  -0.002   6.168  12.253  0.6170 -0.7064  0.6480
16617SOL     OW51291   2.019   6.557   6.204  0.0853  0.1821  0.0383
16617SOL    HW151292   2.092   6.517   6.250  1.1218  1.3216 -0.5737
16617SOL    HW251293   2.057   6.630   6.155 -1.0991 -0.5103 -2.0372
16618SOL     OW51294   7.261   4.840   8.782 -0.0015 -0.0794 -0.2080
16618SOL    HW151295   7.211   4.814   8.705  1.5534 -0.0859 -1.2753
16618SOL    HW251296   7.295   4.927   8.761  0.8596 -0.2891  0.2434
16619SOL     OW51297   1.042   4.800   0.292  0.3848 -0.5001 -0.2484
16619SOL    HW151298   0.988   4.803   0.214 -0.8388 -1.5148  0.5315
16619SOL    HW251299   1.015   4.721   0.338  1.1352  0.0154  1.1625
16620SOL     OW51300   2.368   1.945  10.955  0.0861 -0.5993 -0.1746
16620SOL    HW151301   2.305   1.985  11.015 -0.3573 -0.9235 -0.4202
16620SOL    HW251302   2.416   1.882  11.009 -0.9459 -1.5678 -0.3572
16621SOL     OW51303   0.359   5.901   6.048 -0.3092  0.1508  0.3907
16621SOL    HW151304   0.283   5.864   6.003  0.0121  0.6167 -0.5620
16621SOL    HW251305   0.425   5.832   6.044  0.2740  0.7809 -1.3413
16622SOL     OW51306   4.376   6.526   1.396 -0.1405 -0.2536  0.3148
16622SOL    HW151307   4.399   6.459   1.459 -1.1101 -0.2582  0.6745
16622SOL    HW251308   4.329   6.480   1.327  1.0153 -0.2711 -0.4994
16623SOL     OW51309   2.750   5.227  12.231  0.0207  0.2067  0.3104
16623SOL    HW151310   2.679   5.255  12.173  1.2743  2.6101 -0.2018
16623SOL    HW251311   2.801   5.165  12.178 -0.9752 -0.5608  0.2365
16624SOL     OW51312   2.189   2.920   3.617  0.6553  0.1387  0.1458
16624SOL    HW151313   2.154   2.881   3.697  0.5763  0.2971  0.1905
16624SOL    HW251314   2.270   2.872   3.599  0.0007 -0.7843 -0.4148
16625SOL     OW51315   3.829   2.917   6.189  0.5201 -0.9569  0.0741
16625SOL    HW151316   3.749   2.966   6.170 -0.2919 -2.7172 -1.3913
16625SOL    HW251317   3.807   2.861   6.263  0.3068 -1.5449 -0.4187
16626SOL     OW51318   3.705   5.221   3.871 -0.2252  1.2019 -0.2827
16626SOL    HW151319   3.776   5.188   3.815 -0.3664 -0.1165  0.2753
16626SOL    HW251320   3.701   5.315   3.852  0.1105  0.8927 -2.0507
16627SOL     OW51321   1.516   7.201   8.533  0.6204  0.5283  0.3291
16627SOL    HW151322   1.568   7.171   8.608 -0.3444  0.6106  1.0620
16627SOL    HW251323   1.436   7.235   8.573 -0.3552 -0.3586 -0.7953
16628SOL     OW51324   5.868   1.627   5.715  0.2889  0.4136  0.0199
16628SOL    HW151325   5.899   1.686   5.646  0.0063 -0.5853 -0.9970
16628SOL    HW251326   5.947   1.594   5.756  0.4664  0.8086  0.0010
16629SOL     OW51327   0.497   5.760   3.049 -0.5814  0.3407  0.2391
16629SOL    HW151328   0.587   5.730   3.034 -1.3459 -2.2017  0.2939
16629SOL    HW251329   0.484   5.750   3.143 -0.6240  1.7303  0.4024
16630SOL     OW51330   2.278   6.556   4.097 -0.2866 -0.0862  0.4413
16630SOL    HW151331   2.359   6.507   4.110  0.9395  1.9067  0.7930
16630SOL    HW251332   2.209   6.490   4.099  1.3805 -2.0307 -1.1081
16631SOL     OW51333   6.560   4.011   2.631 -0.0310 -0.3409  0.1312
16631SOL    HW151334   6.498   4.013   2.704  0.2496 -1.0294  0.3920
16631SOL    HW251335   6.515   4.059   2.561  0.0079  1.0083  0.9909
16632SOL     OW51336   3.435   0.142  10.970  0.0778  0.2490  0.5777
16632SOL    HW151337   3.351   0.188  10.972 -0.2254 -0.1618 -1.0736
16632SOL    HW251338   3.487   0.191  10.907 -0.2963 -1.6662 -1.3362
16633SOL     OW51339   4.266   7.668   6.707  0.4241 -0.6138 -0.1962
16633SOL    HW151340   4.230   7.757   6.713  0.9207 -0.3386 -1.0921
16633SOL    HW251341   4.209   7.624   6.644  0.6840 -0.6703 -0.3927
16634SOL     OW51342   7.364   4.278  11.435  0.3310 -0.4040  0.3509
16634SOL    HW151343   7.377   4.184  11.449  0.1321 -0.5449 -0.4006
16634SOL    HW251344   7.322   4.308  11.516 -0.2034 -1.0805  0.3393
16635SOL     OW51345   1.585   1.137  11.402 -0.5271 -0.0272  0.1977
16635SOL    HW151346   1.642   1.129  11.479 -1.5513 -3.1280  0.7707
16635SOL    HW251347   1.505   1.176  11.435 -0.6014 -0.4457  0.5274
16636SOL     OW51348   2.284   5.402   9.823  0.6440  0.1966  0.6064
16636SOL    HW151349   2.218   5.471   9.810 -0.1285 -0.6338  0.0049
16636SOL    HW251350   2.360   5.433   9.773 -0.6648 -0.6810 -2.1557
16637SOL     OW51351   3.860   4.451   6.708  0.7702 -0.0611 -0.1945
16637SOL    HW151352   3.905   4.391   6.649  1.0673 -0.4584  0.4295
16637SOL    HW251353   3.930   4.496   6.754  0.5443 -1.2081  1.3165
16638SOL     OW51354   5.879   0.174   2.467 -1.0878 -0.5476  0.1117
16638SOL    HW151355   5.875   0.154   2.374 -0.8374  0.5707 -0.1604
16638SOL    HW251356   5.967   0.210   2.480 -1.5089  0.3580  0.5454
16639SOL     OW51357   7.234   6.297   8.464  0.2006  0.1233 -0.1305
16639SOL    HW151358   7.250   6.225   8.403  0.1383  1.6532 -2.0420
16639SOL    HW251359   7.141   6.315   8.455  0.5874  1.7624 -1.2806
16640SOL     OW51360   4.019   6.009   5.560 -0.3539  0.1616 -0.3137
16640SOL    HW151361   3.981   6.056   5.486  0.0509  2.1281  0.6607
16640SOL    HW251362   3.963   6.032   5.634  0.6571  0.2173  0.4488
16641SOL     OW51363   6.367   1.535   1.075  0.1330 -0.0106  0.0233
16641SOL    HW151364   6.432   1.572   1.015 -0.6612 -0.5716 -1.2249
16641SOL    HW251365   6.371   1.441   1.059 -1.1100 -0.0357 -0.2066
16642SOL     OW51366   0.291   6.371   4.545  0.3038 -0.0834  0.4980
16642SOL    HW151367   0.236   6.324   4.483 -1.6062 -1.0176  2.7413
16642SOL    HW251368   0.281   6.463   4.520 -2.4888 -0.1900  0.8560
16643SOL     OW51369   4.779   5.641  11.983 -0.3092  0.1788  0.5197
16643SOL    HW151370   4.807   5.663  11.894  0.5902  1.8276  1.1769
16643SOL    HW251371   4.707   5.580  11.970 -0.1051  0.2600 -1.3409
16644SOL     OW51372   7.405   0.806   7.760  0.4752 -0.3163  0.1328
16644SOL    HW151373   7.404   0.719   7.800  0.6529 -1.2624 -1.8118
16644SOL    HW251374   7.416   0.789   7.666 -0.2123  1.7854 -0.3742
16645SOL     OW51375   5.668   1.677   3.306 -0.0616  0.0722 -0.6326
16645SOL    HW151376   5.601   1.739   3.332  0.4598 -0.1735  1.4797
16645SOL    HW251377   5.681   1.622   3.383  1.5701 -0.7775 -1.4598
16646SOL     OW51378   2.572   5.893   4.066 -0.2315  0.5709  0.1956
16646SOL    HW151379   2.536   5.897   4.155 -3.2755  0.9326 -0.9344
16646SOL    HW251380   2.498   5.865   4.011  1.8196 -0.7237 -2.1130
16647SOL     OW51381   7.192   6.143   1.937  0.1935 -0.2222  0.6295
16647SOL    HW151382   7.123   6.177   1.881 -0.6604 -0.4321  1.5345
16647SOL    HW251383   7.258   6.213   1.938 -1.0728  1.0203  1.6479
16648SOL     OW51384   6.323   6.004   5.497 -0.2745 -0.7478 -0.5556
16648SOL    HW151385   6.265   6.053   5.438  0.9252  0.1288 -1.0416
16648SOL    HW251386   6.364   5.939   5.440  0.9501  0.1545 -0.7356
16649SOL     OW51387   2.809   3.411   3.434  0.2621  0.0880  0.0962
16649SOL    HW151388   2.733   3.435   3.487  0.5958 -1.0800  1.1427
16649SOL    HW251389   2.880   3.466   3.466  0.0707  0.5667 -0.2924
16650SOL     OW51390   7.542   2.259   1.031 -0.1050 -1.0892  1.1150
16650SOL    HW151391   7.545   2.169   0.999 -0.9630 -0.4471 -0.9421
16650SOL    HW251392   7.454   2.269   1.067 -0.0886 -1.0011  1.1304
16651SOL     OW51393   1.908   5.230  12.239 -0.0248 -0.1445  0.3434
16651SOL    HW151394   1.899   5.296  12.308  0.7675  1.3725 -0.9203
16651SOL    HW251395   1.931   5.149  12.285  0.5689  0.8342  1.8476
16652SOL     OW51396   3.454   4.699   6.480 -0.3232  0.0469  0.6098
16652SOL    HW151397   3.509   4.730   6.552 -0.3062 -0.8116  0.9826
16652SOL    HW251398   3.471   4.760   6.409  0.0530  0.6110  1.1702
16653SOL     OW51399   6.620   4.526   9.201 -0.2604 -0.6597 -0.0542
16653SOL    HW151400   6.592   4.477   9.123 -0.5892  0.9481 -0.9925
16653SOL    HW251401   6.716   4.517   9.201 -0.4028 -2.8209  0.8817
16654SOL     OW51402   5.399   2.093   3.076 -0.2569 -0.9486  0.4379
16654SOL    HW151403   5.389   1.999   3.056 -0.2288 -0.4773 -2.1601
16654SOL    HW251404   5.372   2.101   3.168  1.2779 -3.7201  1.2313
16655SOL     OW51405   0.099   4.442  12.319 -0.6043 -0.5672 -0.2166
16655SOL    HW151406   0.195   4.442  12.317 -0.6130 -1.1615 -0.6104
16655SOL    HW251407   0.074   4.512  12.259 -0.4157  0.0055  0.3550
16656SOL     OW51408   3.342   7.189  11.067  0.3184 -0.4764 -0.1180
16656SOL    HW151409   3.431   7.224  11.064 -0.3204  1.1858 -1.2301
16656SOL    HW251410   3.348   7.113  11.125  2.4085 -0.2910 -0.0168
16657SOL     OW51411   6.355   0.997   2.144  0.6013 -0.1594  0.1472
16657SOL    HW151412   6.399   1.061   2.088  0.9476 -0.5976 -0.0801
16657SOL    HW251413   6.325   0.929   2.084 -1.2117  0.5725  0.1540
16658SOL     OW51414   3.266   4.748   0.786  0.3150  0.5501  0.4060
16658SOL    HW151415   3.331   4.794   0.733  0.9711 -0.8795 -0.0535
16658SOL    HW251416   3.303   4.661   0.801  0.1532  0.8489  3.1762
16659SOL     OW51417   0.763   7.224   7.947  0.0847 -0.3131 -0.0360
16659SOL    HW151418   0.804   7.304   7.916 -0.0371 -0.4568 -0.5770
16659SOL    HW251419   0.669   7.240   7.939  0.0638 -0.6650 -0.5622
16660SOL     OW51420   5.696   6.604  12.430  0.2986  0.3940  0.4805
16660SOL    HW151421   5.762   6.653  12.479 -0.1106  0.5108  0.9252
16660SOL    HW251422   5.697   6.517  12.468  0.5377  0.2561  0.1594
16661SOL     OW51423   2.525   5.332   8.285  0.4912  0.0148 -0.1799
16661SOL    HW151424   2.575   5.406   8.251 -0.2178  0.1716 -0.9173
16661SOL    HW251425   2.490   5.290   8.207 -1.4267  0.5515  0.3405
16662SOL     OW51426   5.751   6.800  11.360  0.4139  0.3121 -0.7984
16662SOL    HW151427   5.814   6.840  11.421  2.9074 -0.6865 -2.5451
16662SOL    HW251428   5.692   6.871  11.337  0.2575  1.0720  1.6300
16663SOL     OW51429   6.538   5.180   4.305 -0.7922 -0.1567  0.1342
16663SOL    HW151430   6.557   5.087   4.304  1.1790  0.1872  1.0392
16663SOL    HW251431   6.482   5.192   4.382 -1.4442 -0.6466 -0.2592
16664SOL     OW51432   4.592   3.578   8.361  0.0498 -0.2912  0.2455
16664SOL    HW151433   4.624   3.488   8.375 -0.0063 -0.4312 -0.4702
16664SOL    HW251434   4.503   3.578   8.396 -0.1658 -0.6857 -0.2910
16665SOL     OW51435   1.868   5.536  10.612  0.4325 -0.0077 -0.1528
16665SOL    HW151436   1.819   5.458  10.641  1.1018  0.5947  3.0010
16665SOL    HW251437   1.815   5.609  10.643  2.0661  0.6784  1.1308
16666SOL     OW51438   1.547   7.066   8.217  1.2172 -0.1053  0.3071
16666SOL    HW151439   1.461   7.048   8.179  1.2701  0.8191 -0.2930
16666SOL    HW251440   1.541   7.036   8.307  1.0495 -2.2977 -0.3696
16667SOL     OW51441   0.800   2.660   6.060 -0.0467  0.1467 -0.1412
16667SOL    HW151442   0.748   2.719   6.116 -0.1527  0.9399 -1.0530
16667SOL    HW251443   0.889   2.668   6.093 -0.1583  0.3896  0.1043
16668SOL     OW51444   4.006   3.970   8.137 -0.5391  0.1970  0.1585
16668SOL    HW151445   4.028   4.063   8.127  0.8031  0.0741  1.6032
16668SOL    HW251446   3.916   3.964   8.105 -0.7412  2.0342  0.2451
16669SOL     OW51447   3.371   6.365   0.028 -0.2285  0.6548  0.8253
16669SOL    HW151448   3.312   6.327  -0.037 -0.9873  0.4742  1.5934
16669SOL    HW251449   3.386   6.295   0.091 -1.0901  1.3776  1.8884
16670SOL     OW51450   5.985   4.010   3.940  0.0351 -0.0948  0.4900
16670SOL    HW151451   5.940   3.943   3.888 -0.4171  0.5580  0.0344
16670SOL    HW251452   5.918   4.044   3.999  0.6765 -1.2288  1.9410
16671SOL     OW51453   4.691   0.833   0.890 -0.1216  0.4595  0.0646
16671SOL    HW151454   4.664   0.762   0.949 -0.2320  0.8297  0.4648
16671SOL    HW251455   4.780   0.810   0.863 -0.1594  0.1665  0.1876
16672SOL     OW51456   5.322   4.087   8.989 -0.1907 -0.2484 -0.1400
16672SOL    HW151457   5.404   4.095   8.941  0.3588 -1.2297  0.6090
16672SOL    HW251458   5.297   4.177   9.009  0.6573  0.0617 -0.4275
16673SOL     OW51459   1.668   1.734   2.399 -0.3409 -0.0313  0.2571
16673SOL    HW151460   1.702   1.732   2.488  0.0176 -1.3759  0.1069
16673SOL    HW251461   1.576   1.709   2.407  0.2126 -2.3561  0.0652
16674SOL     OW51462   1.028   3.928   4.771  0.0425  0.1516  0.0318
16674SOL    HW151463   0.982   4.011   4.757  0.4030  0.4156  0.3932
16674SOL    HW251464   1.046   3.926   4.865 -2.6183 -1.7231  0.6224
16675SOL     OW51465   5.202   3.578   4.875  0.2238  0.4463  0.0710
16675SOL    HW151466   5.138   3.644   4.900 -0.2544 -0.3889  1.1355
16675SOL    HW251467   5.229   3.538   4.957 -0.3814 -1.4682 -0.6077
16676SOL     OW51468   3.408   3.789   1.337  0.2988 -0.4667  0.0443
16676SOL    HW151469   3.422   3.807   1.430 -0.1001 -1.6519  0.3527
16676SOL    HW251470   3.492   3.811   1.296  0.8124 -0.8842  0.8331
16677SOL     OW51471   4.735   0.714   4.127  0.4647  0.3094 -0.0004
16677SOL    HW151472   4.716   0.755   4.212  2.6297 -0.2442  0.8059
16677SOL    HW251473   4.747   0.787   4.067  2.5507  0.8951  1.0368
16678SOL     OW51474   0.547   2.581  10.593  0.5799 -0.0382  0.2274
16678SOL    HW151475   0.623   2.547  10.546  0.2562  0.9494 -1.0810
16678SOL    HW251476   0.485   2.508  10.594  1.4550 -0.8004  1.1627
16679SOL     OW51477   7.357   6.794   2.423 -0.2335 -0.2476 -0.3629
16679SOL    HW151478   7.338   6.707   2.457  1.4337 -0.6761 -0.4122
16679SOL    HW251479   7.272   6.833   2.405 -1.0243 -1.5302  0.5021
16680SOL     OW51480   1.279   4.043   4.100  0.2289  0.3455  0.1597
16680SOL    HW151481   1.187   4.068   4.095  0.9479  3.1898 -0.9807
16680SOL    HW251482   1.299   4.007   4.014  0.5189  1.2520 -0.1677
16681SOL     OW51483   5.550   7.440   9.595 -0.3247  0.5075 -0.0402
16681SOL    HW151484   5.570   7.505   9.528  0.0800  0.3207 -0.1022
16681SOL    HW251485   5.595   7.471   9.673  1.8439 -0.8831 -0.6550
16682SOL     OW51486   5.166   6.516  10.027 -0.4141  0.0224  0.0194
16682SOL    HW151487   5.102   6.582  10.002 -0.7545 -0.5758 -0.7426
16682SOL    HW251488   5.230   6.516   9.955 -0.5988 -0.6982 -0.1600
16683SOL     OW51489   7.271   0.107   6.113 -0.0895  0.5867 -0.0084
16683SOL    HW151490   7.220   0.111   6.194  0.2778 -2.4890  0.4857
16683SOL    HW251491   7.359   0.132   6.139 -0.0953  0.1584  0.4259
16684SOL     OW51492   2.116   2.041  10.449 -0.4561  0.0710  0.2083
16684SOL    HW151493   2.132   2.009  10.538  1.0693 -0.6301 -0.2893
16684SOL    HW251494   2.022   2.057  10.446 -0.6978 -0.9307  1.6199
16685SOL     OW51495   2.654   7.888   3.150  0.0326 -0.0302 -0.5235
16685SOL    HW151496   2.645   7.979   3.121  1.4362  0.1142 -0.5728
16685SOL    HW251497   2.650   7.837   3.069  3.0156  0.3040 -0.9771
16686SOL     OW51498   7.764   3.341   3.716  0.0674 -0.0919  0.3345
16686SOL    HW151499   7.848   3.361   3.757  0.8630  0.0092 -1.2744
16686SOL    HW251500   7.748   3.414   3.657  0.4426 -1.5972 -1.7364
16687SOL     OW51501   6.168   6.663   9.937  0.4080 -0.6859 -0.2149
16687SOL    HW151502   6.082   6.636   9.907 -1.0115  1.3884  1.6548
16687SOL    HW251503   6.160   6.671  10.032  3.5637 -3.2258  0.4356
16688SOL     OW51504   1.773   0.616  10.109 -0.0863  0.2665 -0.1781
16688SOL    HW151505   1.707   0.582  10.049  0.8864 -1.9561 -0.1153
16688SOL    HW251506   1.854   0.616  10.058  0.9066 -2.3681  1.1899
16689SOL     OW51507   7.532   6.735  11.407 -1.2061 -0.3106 -0.0305
16689SOL    HW151508   7.550   6.820  11.446  3.0426 -0.3303 -1.4392
16689SOL    HW251509   7.526   6.675  11.482 -3.5177  0.9623  0.9216
16690SOL     OW51510   4.196   7.599   4.677  0.0983 -0.3640  0.3407
16690SOL    HW151511   4.120   7.581   4.732 -1.0263  1.3405 -0.5555
16690SOL    HW251512   4.159   7.622   4.592  1.6249  0.2986 -0.1765
16691SOL     OW51513   0.352   5.250   3.345  0.0484 -0.1635 -0.0834
16691SOL    HW151514   0.308   5.205   3.273 -0.1966  1.3606 -0.9271
16691SOL    HW251515   0.290   5.244   3.418 -1.7503  2.0429 -1.2740
16692SOL     OW51516   7.662   4.320  12.149 -0.0757 -0.0928  0.2504
16692SOL    HW151517   7.634   4.229  12.149 -1.2578  0.2047 -1.9741
16692SOL    HW251518   7.679   4.341  12.057  0.2474  1.9011  0.7043
16693SOL     OW51519   0.964   6.363   9.349  0.0313 -0.7205  0.0891
16693SOL    HW151520   1.012   6.444   9.331  0.6914 -0.8467  1.1507
16693SOL    HW251521   1.003   6.298   9.291  0.5498 -0.6127  0.3093
16694SOL     OW51522   7.940   7.659   0.513 -0.1603 -0.3359  0.2069
16694SOL    HW151523   7.974   7.705   0.589 -0.6332 -0.4829  0.5101
16694SOL    HW251524   7.994   7.580   0.506  2.3301  1.3839 -1.7798
16695SOL     OW51525   4.276   0.226   9.108  0.2276 -0.2374  0.5097
16695SOL    HW151526   4.285   0.243   9.015 -1.0828  1.5789  0.6512
16695SOL    HW251527   4.353   0.266   9.148 -0.0226  0.4162  0.3415
16696SOL     OW51528   0.657   4.277   3.136  0.2298  0.3561 -0.8362
16696SOL    HW151529   0.747   4.309   3.133  0.0782  0.7499 -1.5244
16696SOL    HW251530   0.624   4.292   3.048  0.2782 -2.1325 -1.3560
16697SOL     OW51531   7.302   3.589  10.974  0.2081 -0.0550 -0.0257
16697SOL    HW151532   7.333   3.529  11.042  1.4144  0.6693  0.0994
16697SOL    HW251533   7.207   3.576  10.971  0.0121  0.3927  2.2974
16698SOL     OW51534   6.407   4.408  10.936 -0.4985  0.0681 -0.0367
16698SOL    HW151535   6.454   4.469  10.879 -1.0096 -0.4136 -0.9982
16698SOL    HW251536   6.474   4.346  10.965 -0.4878 -0.6087 -1.3915
16699SOL     OW51537   4.465   5.894   6.577 -0.3315 -0.3422  0.0762
16699SOL    HW151538   4.444   5.880   6.669 -1.6328  1.1012  0.0328
16699SOL    HW251539   4.409   5.832   6.530  1.0551 -1.7959  0.2471
16700SOL     OW51540   5.148   6.278   2.656  0.0861  0.2388  0.1797
16700SOL    HW151541   5.096   6.229   2.720 -0.9544 -0.2645 -1.0174
16700SOL    HW251542   5.169   6.214   2.588 -1.3731  1.4101 -1.4649
16701SOL     OW51543   3.531   1.197   0.911  0.1648 -0.1538  0.5032
16701SOL    HW151544   3.444   1.191   0.872  0.5377 -3.6648 -0.0921
16701SOL    HW251545   3.586   1.236   0.843 -0.2905 -1.0599 -0.3952
16702SOL     OW51546   0.202   3.282   7.160 -0.6871 -0.5321 -0.1836
16702SOL    HW151547   0.245   3.331   7.089  1.2194 -1.7503  0.0657
16702SOL    HW251548   0.196   3.345   7.232  1.8945 -0.5926  0.1967
16703SOL     OW51549   6.055   6.911   1.278  0.3645 -0.0297 -0.2375
16703SOL    HW151550   5.982   6.862   1.240  0.8785 -1.2490  0.2666
16703SOL    HW251551   6.127   6.898   1.215  1.1673 -1.9085  0.9562
16704SOL     OW51552   1.150   2.642   9.616  0.1885 -0.3351  0.3026
16704SOL    HW151553   1.162   2.678   9.529  1.8832 -0.2344  0.5571
16704SOL    HW251554   1.110   2.712   9.667  0.7524  0.1841  0.0320
16705SOL     OW51555   1.505   6.416   3.131  0.2564  0.2353  0.1663
16705SOL    HW151556   1.501   6.494   3.186 -0.4086  0.8144 -0.6687
16705SOL    HW251557   1.447   6.354   3.175 -2.8279  1.7583 -1.4027
16706SOL     OW51558   0.486   6.264   6.553 -0.0501 -0.0939 -0.3727
16706SOL    HW151559   0.559   6.325   6.558  0.1512 -0.3723  0.2169
16706SOL    HW251560   0.408   6.319   6.560  0.1249  0.1303 -0.1863
16707SOL     OW51561   7.182   0.593   0.766  0.1839  0.2919  0.0653
16707SOL    HW151562   7.230   0.651   0.825 -0.6255 -0.5241  1.5884
16707SOL    HW251563   7.137   0.653   0.706 -0.0424  1.2346  1.1286
16708SOL     OW51564   2.415   1.459   3.022  0.4356  0.2136 -0.8018
16708SOL    HW151565   2.478   1.506   3.076 -0.0868  0.9351 -0.8098
16708SOL    HW251566   2.439   1.483   2.932 -0.0429  0.7622 -0.7933
16709SOL     OW51567   7.444   5.922   3.280 -0.1979  0.6265 -0.0949
16709SOL    HW151568   7.397   5.971   3.214  0.8370  0.2171 -1.1733
16709SOL    HW251569   7.506   5.868   3.231  0.3681  0.0538  1.1851
16710SOL     OW51570   6.866   5.314   7.898  0.4880 -0.2795  0.1667
16710SOL    HW151571   6.874   5.396   7.848 -0.1385  0.5857  1.4263
16710SOL    HW251572   6.953   5.275   7.892  0.4603 -0.1718 -1.5033
16711SOL     OW51573   6.851   4.300   4.972  0.0159 -0.5796  0.1402
16711SOL    HW151574   6.819   4.210   4.967  0.7313 -0.7646 -3.0125
16711SOL    HW251575   6.775   4.351   5.001 -0.6019 -2.0584  1.2331
16712SOL     OW51576   2.317   4.622  11.237 -0.0795 -0.2589  0.2579
16712SOL    HW151577   2.289   4.677  11.164 -0.1909 -0.6790 -0.0191
16712SOL    HW251578   2.240   4.618  11.294 -1.3331 -2.9465 -1.4187
16713SOL     OW51579   2.900   1.890   7.398  0.2213 -0.0037  0.2278
16713SOL    HW151580   2.922   1.832   7.325 -2.8496 -0.1602 -0.7263
16713SOL    HW251581   2.805   1.903   7.391  0.2696  2.4938  2.3829
16714SOL     OW51582   5.409   5.719   0.458 -0.2909  0.9130 -0.1631
16714SOL    HW151583   5.360   5.704   0.539  0.2392  1.3527  0.2556
16714SOL    HW251584   5.501   5.709   0.484 -0.1129  1.1447 -0.6912
16715SOL     OW51585   4.877   4.874   8.622  0.2404  0.2285  0.2681
16715SOL    HW151586   4.879   4.959   8.578  1.6782 -0.0261 -0.2184
16715SOL    HW251587   4.956   4.875   8.677 -1.1522  0.2697  2.3581
16716SOL     OW51588   7.687   4.957   8.935  0.0987  0.8519  0.2039
16716SOL    HW151589   7.662   4.947   8.843  0.1489  0.3787  0.2381
16716SOL    HW251590   7.605   4.949   8.983  0.2081 -0.0069  0.2692
16717SOL     OW51591   2.335   7.538   5.625  0.3445  0.6190  0.4331
16717SOL    HW151592   2.384   7.481   5.685  0.8896  2.4260  1.7748
16717SOL    HW251593   2.280   7.592   5.681  2.0912  3.5432 -0.4354
16718SOL     OW51594   1.082   6.895  11.289 -0.2955 -0.0960  0.4864
16718SOL    HW151595   1.024   6.960  11.251 -0.2511  0.1988  0.9198
16718SOL    HW251596   1.024   6.822  11.312 -0.5428  0.2880  1.1298
16719SOL     OW51597   4.390   0.911   8.733  0.0271  0.2599 -0.0642
16719SOL    HW151598   4.438   0.843   8.779  0.9411 -0.0900 -1.4891
16719SOL    HW251599   4.449   0.987   8.733  0.2159  0.1200 -1.0210
16720SOL     OW51600   2.773   5.645  10.717 -0.6280  0.4782 -0.0389
16720SOL    HW151601   2.688   5.641  10.762 -0.6966 -0.3305 -0.2140
16720SOL    HW251602   2.803   5.554  10.716 -0.7629  0.4348 -1.8961
16721SOL     OW51603   3.514   6.851   9.822 -0.0372  0.2709 -0.1686
16721SOL    HW151604   3.600   6.831   9.860 -0.1472  2.6394  1.5121
16721SOL    HW251605   3.512   6.946   9.816 -2.4242  0.2475 -0.4863
16722SOL     OW51606   5.143   6.921   7.078 -0.2875  0.3091 -0.6409
16722SOL    HW151607   5.133   6.835   7.037 -1.6913  0.2763 -0.3014
16722SOL    HW251608   5.215   6.910   7.140 -2.0206 -1.4130  1.2538
16723SOL     OW51609   5.561   2.252   7.858  0.1963 -0.7423  0.1375
16723SOL    HW151610   5.517   2.322   7.905 -1.1674 -2.2836  1.2786
16723SOL    HW251611   5.652   2.281   7.851 -0.7830  2.3083 -1.8155
16724SOL     OW51612   4.884   1.067  11.317  0.3436 -0.3417  0.3736
16724SOL    HW151613   4.795   1.033  11.324 -0.1340 -0.1339 -3.0204
16724SOL    HW251614   4.893   1.128  11.391 -3.1290  1.2634 -0.3521
16725SOL     OW51615   0.388   6.807   0.879  0.3036 -0.0261 -0.5189
16725SOL    HW151616   0.302   6.781   0.848  0.5037  0.6181 -1.6946
16725SOL    HW251617   0.399   6.763   0.963 -1.8312  1.1322  0.4377
16726SOL     OW51618   6.492   5.023   3.569 -0.0323 -0.2820 -0.6740
16726SOL    HW151619   6.581   5.045   3.541 -0.3862 -0.5396 -2.0718
16726SOL    HW251620   6.503   4.949   3.629  0.7336  0.1235 -0.2960
16727SOL     OW51621   6.164   1.039   7.959  0.1501 -0.2695  0.0122
16727SOL    HW151622   6.207   1.058   7.875  0.7909 -0.1070  0.3730
16727SOL    HW251623   6.225   1.072   8.025 -0.3703 -0.3600  0.5451
16728SOL     OW51624   0.489   0.370   1.116 -0.0364  0.2271  0.0573
16728SOL    HW151625   0.575   0.403   1.089  0.7196 -2.0111 -0.5800
16728SOL    HW251626   0.468   0.418   1.195  3.0807 -0.9316  1.7631
16729SOL     OW51627   5.870   7.400   0.286  0.4880  0.0676 -0.3070
16729SOL    HW151628   5.826   7.481   0.259  0.8903  0.0800 -0.9563
16729SOL    HW251629   5.821   7.330   0.243  0.3601 -0.0036 -0.0424
16730SOL     OW51630   4.596   2.411   9.656 -0.3379  0.1968  0.5587
16730SOL    HW151631   4.536   2.478   9.623 -0.5603 -0.1692  0.2082
16730SOL    HW251632   4.661   2.460   9.706  0.3365  0.8180 -0.8803
16731SOL     OW51633   2.110   2.490   3.787  0.0345  0.4254 -0.0921
16731SOL    HW151634   2.203   2.492   3.808  0.2158  1.0529 -0.9281
16731SOL    HW251635   2.085   2.582   3.778 -0.4091  0.2350 -0.9556
16732SOL     OW51636   7.614   0.351   1.310 -0.5174 -0.0642  0.1159
16732SOL    HW151637   7.582   0.399   1.234 -1.1127 -1.2340 -0.4139
16732SOL    HW251638   7.674   0.411   1.354 -0.0957  0.6083 -1.3216
16733SOL     OW51639   5.676   6.812  11.915  0.3155 -0.1789 -0.5055
16733SOL    HW151640   5.740   6.808  11.844  0.8693  2.6887 -0.2806
16733SOL    HW251641   5.730   6.815  11.995 -0.2658 -2.0033  0.0106
16734SOL     OW51642   1.908   4.085   6.329  0.2000 -0.3365  0.6512
16734SOL    HW151643   1.868   4.170   6.310  0.4801 -0.4188 -0.3398
16734SOL    HW251644   1.932   4.091   6.422 -0.4610  0.3796  0.7932
16735SOL     OW51645   7.842   0.374  11.827 -0.2782  0.2821 -0.0144
16735SOL    HW151646   7.871   0.427  11.902  0.9867 -0.7583  0.2605
16735SOL    HW251647   7.756   0.342  11.853  1.1508 -2.1500  2.1941
16736SOL     OW51648   6.064   1.928   4.697 -0.5141  0.6841  0.9160
16736SOL    HW151649   6.118   1.919   4.776 -0.4010  1.9456  1.0102
16736SOL    HW251650   6.021   1.843   4.687  1.0905 -0.1847  1.1289
16737SOL     OW51651   6.539   2.994   3.956 -0.0025  0.0623 -0.3492
16737SOL    HW151652   6.588   3.032   4.029  1.5524  0.3548 -1.5030
16737SOL    HW251653   6.603   2.985   3.886 -1.8372  1.4732 -2.3115
16738SOL     OW51654   6.294   4.596   3.027 -0.6300  0.5598 -0.0559
16738SOL    HW151655   6.244   4.515   3.016 -1.2949  1.1912 -2.0298
16738SOL    HW251656   6.231   4.666   3.011  0.1944  1.4681  0.5286
16739SOL     OW51657   7.666   1.355   0.801  0.0924  0.4175  0.0533
16739SOL    HW151658   7.710   1.272   0.781  0.5193 -0.1787  3.0046
16739SOL    HW251659   7.579   1.346   0.762 -0.0374 -1.6503  0.6899
16740SOL     OW51660   1.173   3.665   7.466  0.3486  0.5818 -0.0057
16740SOL    HW151661   1.131   3.629   7.544  0.8401  2.0215  0.9555
16740SOL    HW251662   1.103   3.671   7.402 -0.3648  0.5919  0.7551
16741SOL     OW51663   6.595   4.641   8.617  0.2018 -0.7098 -0.0285
16741SOL    HW151664   6.652   4.565   8.606  1.9607  0.4572  0.5968
16741SOL    HW251665   6.595   4.658   8.711 -0.3437 -0.0563 -0.1373
16742SOL     OW51666   5.038   2.802   2.548 -0.0000  0.2899  0.6109
16742SOL    HW151667   5.091   2.724   2.564  0.7438  0.7480  0.4549
16742SOL    HW251668   4.949   2.769   2.535  0.6225 -0.7374 -1.4152
16743SOL     OW51669   1.009   1.241  11.601 -0.3294  0.1888  0.2766
16743SOL    HW151670   1.059   1.169  11.561  0.1090  0.4947  0.2688
16743SOL    HW251671   0.935   1.254  11.542 -2.0969 -2.2203  1.7472
16744SOL     OW51672   7.676   6.411  11.833 -0.5695 -0.2244 -0.0973
16744SOL    HW151673   7.597   6.360  11.853 -0.6049 -0.3382 -0.5023
16744SOL    HW251674   7.746   6.345  11.831 -0.1763  0.0840  1.8108
16745SOL     OW51675   5.910   7.588   2.555  0.0978  0.2390  0.3224
16745SOL    HW151676   5.974   7.657   2.572 -0.5161  0.4376  1.9880
16745SOL    HW251677   5.838   7.607   2.614 -1.7708  0.3108 -1.8531
16746SOL     OW51678   2.996   4.701   1.556 -0.7012 -0.4396  0.2228
16746SOL    HW151679   3.062   4.763   1.586  0.8442 -1.2593 -1.3154
16746SOL    HW251680   2.926   4.707   1.621  0.0847  1.7549  0.9448
16747SOL     OW51681   4.594   7.001   3.276 -0.5472  0.2880 -0.3851
16747SOL    HW151682   4.686   7.025   3.265 -0.0207 -1.0776  0.6748
16747SOL    HW251683   4.546   7.083   3.268  0.8645  1.1880  0.0627
16748SOL     OW51684   6.269   0.894  11.820 -0.0839 -0.4830  0.0291
16748SOL    HW151685   6.338   0.958  11.835 -0.4224 -0.1806  0.3213
16748SOL    HW251686   6.272   0.877  11.726 -0.5434  0.6104 -0.2072
16749SOL     OW51687   4.107   2.231   9.623  0.5231 -0.3393 -0.3762
16749SOL    HW151688   4.173   2.298   9.602  0.0554 -0.2263 -1.5511
16749SOL    HW251689   4.139   2.191   9.704  1.8746 -0.0677 -0.7475
16750SOL     OW51690   3.264   0.565   4.676 -0.1344  0.1129  0.4641
16750SOL    HW151691   3.177   0.550   4.638  0.2768 -0.4140 -0.3011
16750SOL    HW251692   3.267   0.508   4.752 -0.5772  0.3773  0.6827
16751SOL     OW51693   6.229   2.551   5.690 -0.3919  0.3020 -0.1028
16751SOL    HW151694   6.167   2.536   5.761  0.4319  0.5219  0.6831
16751SOL    HW251695   6.182   2.606   5.627 -1.2322 -0.1541  0.1149
16752SOL     OW51696   5.861   6.386   8.804  0.0447  0.4641 -0.3028
16752SOL    HW151697   5.926   6.435   8.855  1.5456 -0.6332 -1.0849
16752SOL    HW251698   5.874   6.295   8.830 -1.6647  0.2801  0.0044
16753SOL     OW51699   7.127   7.209   6.139 -0.0961  0.6299 -0.3086
16753SOL    HW151700   7.054   7.251   6.183 -0.2194  0.4109 -0.3027
16753SOL    HW251701   7.202   7.265   6.157 -0.3575  1.1196 -0.7267
16754SOL     OW51702   6.458   0.517   0.443  0.4889  0.4174 -0.2184
16754SOL    HW151703   6.492   0.457   0.377  0.6963  1.2385 -0.8857
16754SOL    HW251704   6.386   0.470   0.484 -0.5105  0.3670 -1.9511
16755SOL     OW51705   1.345   0.417   7.350 -0.4063  0.5596 -0.2851
16755SOL    HW151706   1.338   0.330   7.310 -1.3350  0.5615 -0.1404
16755SOL    HW251707   1.359   0.476   7.276 -0.0020  0.3210 -0.4046
16756SOL     OW51708   5.941   3.606   6.205 -0.0851  0.1419 -0.2035
16756SOL    HW151709   5.879   3.676   6.182  1.1475  0.5909 -2.3412
16756SOL    HW251710   5.935   3.544   6.133  0.3391 -0.9675  0.6866
16757SOL     OW51711   6.145   4.860   9.987  0.0600 -0.2496  0.6007
16757SOL    HW151712   6.224   4.907   9.962  0.2554 -1.6538 -1.6371
16757SOL    HW251713   6.082   4.929  10.008  1.4660  0.9075  1.2338
16758SOL     OW51714   3.527   0.404   0.630  0.0773  0.4430 -0.0423
16758SOL    HW151715   3.619   0.383   0.610  0.3978  2.2148 -0.6381
16758SOL    HW251716   3.479   0.324   0.609  1.4934 -0.5524  0.3648
16759SOL     OW51717   0.386   0.342   6.169 -0.6134  0.5776  0.3347
16759SOL    HW151718   0.390   0.382   6.256  0.3590  0.2266  0.4612
16759SOL    HW251719   0.453   0.274   6.171  0.3007  1.3878 -1.0840
16760SOL     OW51720   2.014   4.745   3.657 -0.3876  0.3797 -0.5405
16760SOL    HW151721   2.052   4.671   3.609  1.5315  0.6587  0.4549
16760SOL    HW251722   1.923   4.749   3.626 -0.2932 -1.7963 -1.3001
16761SOL     OW51723   5.569   7.580   1.088  0.0047 -0.0726 -0.2104
16761SOL    HW151724   5.661   7.607   1.093 -0.2500  1.6707 -2.7370
16761SOL    HW251725   5.521   7.653   1.127 -0.3500 -0.7025  0.5427
16762SOL     OW51726   1.855   7.127   3.714  0.0625  0.2612  0.5116
16762SOL    HW151727   1.889   7.190   3.778  3.8059  0.8963 -1.8249
16762SOL    HW251728   1.896   7.044   3.737  0.2400  0.1562 -0.1668
16763SOL     OW51729   4.212   3.571   1.011 -0.1523  0.2204  0.0291
16763SOL    HW151730   4.237   3.482   1.036 -0.6889 -0.0537 -0.3778
16763SOL    HW251731   4.228   3.624   1.089  2.5494  0.2478 -0.4645
16764SOL     OW51732   4.707   5.286   3.459 -0.7493  0.7457  0.3487
16764SOL    HW151733   4.789   5.272   3.411 -1.0564  1.1442 -0.3041
16764SOL    HW251734   4.732   5.275   3.551  0.1880  1.5154  0.2105
16765SOL     OW51735   3.512   0.946   6.921  0.4081 -0.4451 -0.7048
16765SOL    HW151736   3.540   0.941   6.829 -0.2348 -1.1164 -0.8707
16765SOL    HW251737   3.584   0.907   6.970  0.4590 -0.7184 -0.9898
16766SOL     OW51738   7.142   2.902  10.011 -0.2008 -0.0249 -0.4208
16766SOL    HW151739   7.162   2.872  10.100 -0.4852 -0.0508 -0.3660
16766SOL    HW251740   7.065   2.957  10.021 -2.0563 -2.3623 -1.0129
16767SOL     OW51741   2.345   6.931   9.979  0.2326  0.0897 -0.5513
16767SOL    HW151742   2.431   6.962  10.007  0.1633  1.0132 -1.3152
16767SOL    HW251743   2.362   6.846   9.938  0.9570  0.7532 -1.6737
16768SOL     OW51744   2.760   2.401   8.318  0.2059  0.3176 -0.0360
16768SOL    HW151745   2.833   2.447   8.275 -0.6692  0.7854 -1.0678
16768SOL    HW251746   2.762   2.434   8.408  1.1457  0.4644 -0.0925
16769SOL     OW51747   3.551   7.507  10.568  0.2081  0.6974 -0.2353
16769SOL    HW151748   3.595   7.487  10.650 -1.0362 -0.3893  0.2119
16769SOL    HW251749   3.563   7.429  10.514  0.4328  1.1322 -0.8268
16770SOL     OW51750   3.354   6.833   7.596  0.2034  0.6994  0.3090
16770SOL    HW151751   3.323   6.910   7.643 -0.0504  2.0036 -1.8504
16770SOL    HW251752   3.447   6.849   7.582  0.4280 -0.0078  0.9569
16771SOL     OW51753   2.592   1.756   2.614 -0.0721 -0.5970  0.6620
16771SOL    HW151754   2.687   1.751   2.628 -0.0602  0.4937  1.0146
16771SOL    HW251755   2.556   1.693   2.677  0.5070 -2.5939 -0.9076
16772SOL     OW51756   6.067   0.573   4.747 -0.2134  0.0516 -0.4004
16772SOL    HW151757   5.976   0.545   4.735  0.3068 -2.8745  1.4503
16772SOL    HW251758   6.110   0.549   4.665 -1.1887  2.2016 -1.6098
16773SOL     OW51759   3.839   2.477   4.336  0.7263 -0.5279  0.2786
16773SOL    HW151760   3.754   2.474   4.292  0.8672 -1.2201  0.0356
16773SOL    HW251761   3.820   2.509   4.424  0.1147 -1.2726  0.4316
16774SOL     OW51762   3.322   5.204   7.478 -0.3000 -0.9129  0.2850
16774SOL    HW151763   3.287   5.292   7.494  0.6246 -0.2217 -1.2926
16774SOL    HW251764   3.255   5.146   7.513 -2.0787  0.3883 -0.7645
16775SOL     OW51765   0.377   4.280   1.635 -0.5060 -0.1905  0.1310
16775SOL    HW151766   0.446   4.256   1.573 -0.3916  1.7071 -0.5534
16775SOL    HW251767   0.400   4.369   1.663 -1.6770 -0.2394  1.3162
16776SOL     OW51768   3.847   3.489   6.399  0.4381 -0.1923  0.2318
16776SOL    HW151769   3.915   3.556   6.405  0.4126 -0.2808  2.2843
16776SOL    HW251770   3.765   3.538   6.396  0.4566 -0.0871  1.0572
16777SOL     OW51771   0.696   6.699   1.719  0.6197 -0.4582 -0.1578
16777SOL    HW151772   0.694   6.794   1.722 -0.8574 -0.3948 -1.7390
16777SOL    HW251773   0.777   6.678   1.674  1.7105 -0.0482  1.5207
16778SOL     OW51774   0.599   1.889   7.243 -0.1204 -0.2025 -0.6798
16778SOL    HW151775   0.589   1.984   7.249  2.0307  0.0293  0.1865
16778SOL    HW251776   0.669   1.877   7.178 -0.0178 -1.1641 -0.4051
16779SOL     OW51777   1.874   3.419   1.323  0.3336  0.3285 -0.5413
16779SOL    HW151778   1.833   3.448   1.404 -2.9881 -0.5667 -1.7245
16779SOL    HW251779   1.920   3.339   1.346 -0.4059  0.1930  0.5253
16780SOL     OW51780   4.585   2.874  11.177  0.0448  0.0619 -0.1937
16780SOL    HW151781   4.647   2.886  11.249  0.7642  0.0308 -0.7954
16780SOL    HW251782   4.584   2.780  11.160 -2.3786 -0.3723  1.7019
16781SOL     OW51783   6.864   3.574   2.856  0.0609  0.0465  0.7347
16781SOL    HW151784   6.898   3.494   2.815 -0.5040 -0.1453  0.6276
16781SOL    HW251785   6.938   3.610   2.903  0.8354  0.4414 -0.7198
16782SOL     OW51786   1.533   0.410   1.690 -0.4059  0.1952  0.0317
16782SOL    HW151787   1.478   0.425   1.613  0.1085 -0.0143 -0.3837
16782SOL    HW251788   1.615   0.455   1.670  0.8919 -2.4013 -0.8979
16783SOL     OW51789   3.507   0.871  11.037  0.0457  0.1066 -0.2407
16783SOL    HW151790   3.496   0.933  10.965  2.2309  1.6730  0.6581
16783SOL    HW251791   3.553   0.796  10.997 -1.2234 -0.3042 -0.9995
16784SOL     OW51792   6.401   5.823   0.398 -0.3249 -0.3242 -0.8193
16784SOL    HW151793   6.397   5.832   0.303  0.9781 -0.5121 -0.9035
16784SOL    HW251794   6.376   5.732   0.415  0.4650 -0.5918 -1.0680
16785SOL     OW51795   3.699   2.561   3.389 -0.2671  0.2825  0.6202
16785SOL    HW151796   3.628   2.552   3.326 -0.6632  0.8566  0.9722
16785SOL    HW251797   3.779   2.559   3.336 -0.5362 -0.5176  0.2366
16786SOL     OW51798   1.578   0.564   7.468  0.1161  0.5734 -0.3774
16786SOL    HW151799   1.501   0.527   7.424 -0.6177  0.4193  0.9819
16786SOL    HW251800   1.564   0.659   7.464  0.0228  0.5582 -0.4205
16787SOL     OW51801   6.967   5.808   2.462  0.1684  0.1809 -0.0739
16787SOL    HW151802   7.057   5.841   2.469  0.0097  0.5405  0.2971
16787SOL    HW251803   6.957   5.751   2.538  0.3024 -0.3913 -0.4825
16788SOL     OW51804   1.401   2.015   3.779  0.0369  0.1205 -0.1857
16788SOL    HW151805   1.430   1.928   3.751  0.5299  0.1610  0.1838
16788SOL    HW251806   1.323   1.998   3.832 -1.4640  0.1003 -2.2481
16789SOL     OW51807   0.128   2.159   2.558  0.1153 -0.5754  0.3431
16789SOL    HW151808   0.093   2.245   2.578 -1.7442 -1.1914 -0.0694
16789SOL    HW251809   0.221   2.165   2.580  0.2713  1.8436 -0.7033
16790SOL     OW51810   0.797   0.207   6.415  0.1901 -0.1318  0.8156
16790SOL    HW151811   0.776   0.118   6.386 -1.5161  0.2763  0.6610
16790SOL    HW251812   0.805   0.200   6.510  2.1959 -0.8124  0.6326
16791SOL     OW51813   5.465   5.444  10.970 -0.1494  0.1007  0.5098
16791SOL    HW151814   5.433   5.497  10.898  0.2692 -2.3734 -1.6462
16791SOL    HW251815   5.446   5.495  11.048 -1.2838  2.5865 -1.2801
16792SOL     OW51816   7.357   6.639   3.458 -0.4897  0.6216 -0.3062
16792SOL    HW151817   7.412   6.687   3.520 -1.4357 -0.5502  1.5511
16792SOL    HW251818   7.418   6.585   3.408  0.1834  0.4038  0.7208
16793SOL     OW51819   0.264   0.381   4.542 -0.0494  0.2952  0.2835
16793SOL    HW151820   0.316   0.350   4.468  1.7581 -0.1489  1.6495
16793SOL    HW251821   0.224   0.303   4.579  1.1058  0.1091  1.2247
16794SOL     OW51822   0.133   2.782   1.597  0.2117 -0.1257  0.1717
16794SOL    HW151823   0.147   2.688   1.609  0.8441 -0.2950 -1.5794
16794SOL    HW251824   0.053   2.787   1.544  0.4800  0.3010 -0.1900
16795SOL     OW51825   5.682   3.404   0.568  0.7887 -0.2482  0.5898
16795SOL    HW151826   5.696   3.422   0.475 -1.0534  1.6371  0.6116
16795SOL    HW251827   5.755   3.447   0.612  0.6854  0.4363  0.1085
16796SOL     OW51828   5.065   0.555   1.271 -0.2594 -0.1535 -0.5086
16796SOL    HW151829   5.014   0.564   1.352  0.8542  2.0316  0.0394
16796SOL    HW251830   5.126   0.629   1.274  0.6180 -0.7266 -2.7876
16797SOL     OW51831   1.290   2.359   2.405 -0.1105  0.2411  1.1236
16797SOL    HW151832   1.291   2.272   2.364  0.6443  0.7604 -0.0002
16797SOL    HW251833   1.203   2.365   2.444 -0.8048 -0.3592 -0.2486
16798SOL     OW51834   0.928   0.365   2.851  0.1435 -0.0207 -0.1319
16798SOL    HW151835   0.965   0.441   2.896  0.7911 -1.1448  1.3326
16798SOL    HW251836   0.917   0.393   2.760 -0.2394  2.0139  0.4954
16799SOL     OW51837   0.524   1.914   0.812  0.0598 -0.0518 -0.1799
16799SOL    HW151838   0.558   1.826   0.791  2.8343  0.5663  1.2438
16799SOL    HW251839   0.443   1.897   0.860  0.5788 -1.8674  0.1463
16800SOL     OW51840   1.604   4.232   0.781  0.6547  0.1828 -0.1711
16800SOL    HW151841   1.555   4.182   0.846  2.8356 -0.5475  1.0339
16800SOL    HW251842   1.562   4.210   0.697 -0.9636 -0.4584  0.7750
16801SOL     OW51843   0.496   0.193   6.953  0.2613 -0.3919 -0.3552
16801SOL    HW151844   0.479   0.119   7.011 -0.5212 -0.0438 -0.1239
16801SOL    HW251845   0.553   0.251   7.004 -1.3013  0.4431  0.5466
16802SOL     OW51846   1.557   1.863   0.265 -0.2369  0.5861 -0.0949
16802SOL    HW151847   1.504   1.935   0.229  0.2964  0.9177 -0.2328
16802SOL    HW251848   1.500   1.820   0.328 -2.1117 -1.5291 -2.9889
16803SOL     OW51849   5.347   7.553   8.089 -0.4707  0.5381  0.1200
16803SOL    HW151850   5.359   7.479   8.149  0.8143  0.9285  0.3676
16803SOL    HW251851   5.269   7.598   8.122 -0.7077 -0.1613  0.5368
16804SOL     OW51852   6.265   6.729   8.514 -0.3210 -0.0682  0.0503
16804SOL    HW151853   6.181   6.731   8.560 -0.5974  2.7649 -0.4059
16804SOL    HW251854   6.314   6.804   8.549  0.9635 -0.0862 -1.5632
16805SOL     OW51855   3.708   7.163   2.601  0.5935  0.6822 -0.0246
16805SOL    HW151856   3.718   7.071   2.624  0.8848  0.0347 -2.5249
16805SOL    HW251857   3.715   7.209   2.685  0.0017 -1.5654  1.3509
16806SOL     OW51858   5.504   0.835   3.293  0.2713  0.1506  0.5189
16806SOL    HW151859   5.535   0.833   3.202 -0.9292  1.0366  0.0579
16806SOL    HW251860   5.547   0.911   3.331 -0.2347  0.5605  0.2879
16807SOL     OW51861   3.639   7.175  12.308  0.2797  0.1219 -0.0906
16807SOL    HW151862   3.601   7.092  12.281  1.4353 -0.9063  1.2580
16807SOL    HW251863   3.602   7.240  12.248 -0.1342 -1.4476 -1.5995
16808SOL     OW51864   5.399   6.653   1.770  0.2863  0.1318 -0.9067
16808SOL    HW151865   5.444   6.732   1.800 -0.3040 -0.2569  1.2147
16808SOL    HW251866   5.464   6.583   1.780  0.4340  0.1610 -1.6338
16809SOL     OW51867   7.127   1.664   0.517 -0.0194 -0.2779 -0.3508
16809SOL    HW151868   7.068   1.659   0.591 -0.6680  1.7202 -0.6767
16809SOL    HW251869   7.077   1.629   0.443 -0.4167  0.4492 -0.4234
16810SOL     OW51870   6.364   7.380  11.642 -0.2847 -0.1985  0.4015
16810SOL    HW151871   6.371   7.397  11.736 -2.9420 -1.4467  0.9254
16810SOL    HW251872   6.387   7.288  11.633  0.4053  0.0344 -0.2577
16811SOL     OW51873   0.194   1.602   9.590 -0.7535 -0.0164 -0.5071
16811SOL    HW151874   0.282   1.613   9.554  0.3913 -1.8938  1.4045
16811SOL    HW251875   0.177   1.684   9.637 -0.4792  0.7693 -1.7507
16812SOL     OW51876   5.100   1.291   1.036 -0.2451  0.3280  0.0442
16812SOL    HW151877   5.062   1.329   0.957  1.0310 -1.3157 -1.4461
16812SOL    HW251878   5.132   1.205   1.009  2.0248  0.4887  1.8330
16813SOL     OW51879   4.792   4.102   5.623  0.1556 -0.5880 -0.1229
16813SOL    HW151880   4.824   4.184   5.662 -1.8697  1.3015 -2.1869
16813SOL    HW251881   4.743   4.060   5.693 -1.2505  1.4536  0.1932
16814SOL     OW51882   5.822   5.112   1.072  0.2858 -0.2196 -0.1097
16814SOL    HW151883   5.875   5.176   1.025 -1.1078  1.5008  0.5839
16814SOL    HW251884   5.866   5.102   1.156  1.6782 -1.8293 -0.9605
16815SOL     OW51885   2.379   2.755   2.416 -0.3319 -0.2309  0.4132
16815SOL    HW151886   2.287   2.761   2.440 -0.4034 -0.2179  0.1458
16815SOL    HW251887   2.379   2.760   2.320 -0.0154  0.3043  0.4358
16816SOL     OW51888   3.315   2.538   1.456 -0.1693  0.6443  0.1718
16816SOL    HW151889   3.298   2.444   1.463 -1.5650  0.5509 -2.9689
16816SOL    HW251890   3.312   2.570   1.546 -1.0767 -2.1010  1.1981
16817SOL     OW51891   1.175   0.593   1.619  0.1943  0.1617  0.0325
16817SOL    HW151892   1.244   0.535   1.586  1.7055  2.4161 -1.0269
16817SOL    HW251893   1.182   0.672   1.565 -1.8988  1.2733  1.2614
16818SOL     OW51894   0.362   1.862   5.787  1.0076 -0.7057  0.0453
16818SOL    HW151895   0.346   1.947   5.746  2.5177 -0.8786 -0.9733
16818SOL    HW251896   0.317   1.800   5.729 -2.7711 -0.4869  2.3899
16819SOL     OW51897   7.549   2.431  11.484  0.0974 -0.4091  0.8000
16819SOL    HW151898   7.563   2.346  11.527 -0.1603 -1.0936 -0.4310
16819SOL    HW251899   7.482   2.474  11.538  1.4994 -0.1965  2.4707
16820SOL     OW51900   0.226   1.838   3.615  0.3676 -0.3872  0.3479
16820SOL    HW151901   0.264   1.799   3.694  3.6751 -0.3430 -1.0533
16820SOL    HW251902   0.259   1.785   3.543  2.4285  2.8894 -1.3982
16821SOL     OW51903   0.441   4.528   2.620  0.8120 -0.3066  0.6168
16821SOL    HW151904   0.359   4.575   2.602 -0.4952 -2.0363  1.6375
16821SOL    HW251905   0.503   4.596   2.643 -0.6397  1.0077  0.8516
16822SOL     OW51906   7.014   7.767  12.370 -0.2516  0.6598  0.6804
16822SOL    HW151907   6.954   7.749  12.442  0.7952 -1.8820  1.0101
16822SOL    HW251908   6.960   7.809  12.304 -1.8123  0.7331  1.9375
16823SOL     OW51909   5.551   5.650   0.176  0.1750 -0.5139  0.0797
16823SOL    HW151910   5.578   5.562   0.150 -3.0863 -1.7106  0.2692
16823SOL    HW251911   5.486   5.635   0.245  0.8850  2.1532  1.4416
16824SOL     OW51912   1.998   1.371   5.488  0.5414  0.3005  0.2194
16824SOL    HW151913   2.010   1.361   5.393 -1.2077  3.6953 -0.5283
16824SOL    HW251914   1.924   1.315   5.509  0.0619  0.5535 -0.7246
16825SOL     OW51915   5.629   7.635  12.245  0.1230  0.9606  0.3210
16825SOL    HW151916   5.546   7.654  12.201 -0.2472 -0.9347  0.1046
16825SOL    HW251917   5.627   7.690  12.324  0.2313  3.4609 -1.3180
16826SOL     OW51918   7.007   5.782   6.686 -0.0665 -0.3846  0.1563
16826SOL    HW151919   6.976   5.726   6.758 -0.8781 -1.1813 -0.7824
16826SOL    HW251920   7.090   5.742   6.658  0.6078  0.3271  1.0709
16827SOL     OW51921   5.609   2.497   1.651 -0.5569 -0.0470 -0.4796
16827SOL    HW151922   5.630   2.589   1.666  1.1253 -0.5957  0.7793
16827SOL    HW251923   5.628   2.454   1.734 -0.9813 -1.5978 -1.1542
16828SOL     OW51924   3.307   7.013   7.803  0.2414 -0.2999  0.5731
16828SOL    HW151925   3.224   7.048   7.834  0.5478  0.1939  0.8561
16828SOL    HW251926   3.325   6.938   7.860 -0.3384 -0.8248  0.0719
16829SOL     OW51927   0.580   4.042   0.546 -0.2801 -0.7016 -0.7513
16829SOL    HW151928   0.607   3.954   0.574 -2.8492 -1.0914  0.8270
16829SOL    HW251929   0.588   4.040   0.451 -0.8424 -2.8905 -0.8207
16830SOL     OW51930   5.017   7.186   1.859  0.0288  0.4488 -0.1733
16830SOL    HW151931   5.020   7.279   1.881  0.5839  0.8463 -1.8249
16830SOL    HW251932   5.052   7.142   1.937  0.7750  1.6830  0.2124
16831SOL     OW51933   4.905   5.483   6.255  0.1874 -0.2432  0.4296
16831SOL    HW151934   4.862   5.399   6.240  0.0391 -0.3542  1.4191
16831SOL    HW251935   4.834   5.548   6.248  0.0746 -0.3164  0.8551
16832SOL     OW51936   3.066   3.421  11.809  0.3455  0.1019 -0.6393
16832SOL    HW151937   3.109   3.347  11.851 -1.2763 -0.4412  0.1561
16832SOL    HW251938   3.087   3.412  11.716 -0.1090 -1.5602 -0.6012
16833SOL     OW51939   7.266   5.003   0.374 -0.1829 -0.0398 -0.2484
16833SOL    HW151940   7.265   5.069   0.444  0.4380  1.5625 -1.6795
16833SOL    HW251941   7.345   5.023   0.324 -0.1070 -1.7635 -0.8592
16834SOL     OW51942   4.559   1.558   5.005 -0.4060 -0.6041  0.3489
16834SOL    HW151943   4.609   1.640   5.005 -0.5515 -0.4285 -2.1730
16834SOL    HW251944   4.593   1.509   5.080  0.0015  1.5485  1.6632
16835SOL     OW51945   1.142   6.046   6.978 -0.0295  0.0291  0.3987
16835SOL    HW151946   1.163   6.114   6.913 -1.9201 -2.0940 -2.6642
16835SOL    HW251947   1.071   6.084   7.030  0.7044  1.3316  0.4979
16836SOL     OW51948   7.068   6.595   9.706  0.5176  0.1914 -0.3166
16836SOL    HW151949   7.118   6.515   9.694  1.5262  0.7377  0.0619
16836SOL    HW251950   7.080   6.644   9.624  0.6707  0.3481 -0.2035
16837SOL     OW51951   1.530   5.840   2.142 -0.6111 -0.0339  0.1679
16837SOL    HW151952   1.596   5.895   2.099  0.6653 -1.2619  0.4837
16837SOL    HW251953   1.557   5.750   2.121 -1.0921 -0.6123  1.8753
16838SOL     OW51954   4.723   5.878   7.841 -0.2808 -0.0853  0.5180
16838SOL    HW151955   4.640   5.914   7.874 -0.3249  2.1882 -1.7439
16838SOL    HW251956   4.718   5.892   7.746  1.8860 -1.7375  0.0961
16839SOL     OW51957   1.380   4.991   6.153 -0.2288  0.0616  0.4990
16839SOL    HW151958   1.319   5.051   6.197 -0.1925  0.1923  0.3691
16839SOL    HW251959   1.455   4.986   6.213  0.9738  2.2539 -0.7073
16840SOL     OW51960   5.730   2.237   9.275 -0.7128  0.1609 -0.3578
16840SOL    HW151961   5.768   2.165   9.225 -1.5395  0.1245 -0.9498
16840SOL    HW251962   5.743   2.314   9.221  0.0687  0.4479  0.2245
16841SOL     OW51963   0.319   4.005   0.341 -0.6211  0.2531 -0.4114
16841SOL    HW151964   0.263   4.081   0.353 -0.8528  0.1007 -0.5144
16841SOL    HW251965   0.258   3.931   0.335 -0.3958  0.0482 -0.2216
16842SOL     OW51966   4.876   0.976   6.587 -0.0869 -0.0348 -0.2373
16842SOL    HW151967   4.794   1.019   6.611 -0.2747  0.3079 -1.4374
16842SOL    HW251968   4.849   0.899   6.537  0.2403 -1.6992  1.9796
16843SOL     OW51969   0.650   1.082  10.095  0.1139 -0.2117 -0.7960
16843SOL    HW151970   0.558   1.081  10.121  0.3786  0.1235  0.2075
16843SOL    HW251971   0.652   1.130  10.013 -0.4646  0.8044 -0.2302
16844SOL     OW51972   0.587   4.039   0.278  0.1467  0.2450  0.0731
16844SOL    HW151973   0.492   4.037   0.278  0.1258  0.3811  1.4042
16844SOL    HW251974   0.612   4.006   0.191 -1.0619 -1.7160  0.4101
16845SOL     OW51975   3.253   6.409  10.955 -0.1176  0.4733 -0.1142
16845SOL    HW151976   3.256   6.359  11.036  1.2662  2.7617  1.3523
16845SOL    HW251977   3.337   6.392  10.912  0.4707  1.7002  0.5236
16846SOL     OW51978   3.807   2.846   7.490 -0.2160  0.4235  0.2876
16846SOL    HW151979   3.796   2.791   7.568 -0.7558 -1.0009 -0.7493
16846SOL    HW251980   3.899   2.869   7.490 -0.3228  0.9356  1.6568
16847SOL     OW51981   3.930   1.663   4.675  0.1065  0.2685  0.0763
16847SOL    HW151982   3.978   1.736   4.636 -1.7480  0.8145 -1.3079
16847SOL    HW251983   3.852   1.703   4.712  0.5624 -0.6257  2.1598
16848SOL     OW51984   2.881   7.102   9.068 -0.2662  0.7013  0.4208
16848SOL    HW151985   2.849   7.109   8.979  0.2528 -1.5668 -0.0263
16848SOL    HW251986   2.806   7.070   9.118  0.1880 -0.8870  0.1503
16849SOL     OW51987   0.377   4.823   7.875  0.5204 -0.1927 -0.2210
16849SOL    HW151988   0.359   4.892   7.812 -0.2587  0.5996  0.8243
16849SOL    HW251989   0.303   4.763   7.868  1.0879 -0.8256 -0.9730
16850SOL     OW51990   4.941   0.731   3.487 -0.7011 -0.3899  0.4306
16850SOL    HW151991   4.908   0.688   3.408 -0.6630  0.9880 -0.3732
16850SOL    HW251992   4.865   0.780   3.521 -0.5323 -0.4268  0.8702
16851SOL     OW51993   0.118   3.163   5.512  0.0216  0.3236  0.4416
16851SOL    HW151994   0.109   3.230   5.580 -1.0811  0.4174  0.2316
16851SOL    HW251995   0.112   3.080   5.560 -1.0820  0.3882  0.4542
16852SOL     OW51996   0.787   7.495   5.821 -0.3878 -0.6327  0.3050
16852SOL    HW151997   0.704   7.450   5.806  0.4766 -1.7605 -1.2485
16852SOL    HW251998   0.852   7.426   5.828  0.5213  0.2575  0.9990
16853SOL     OW51999   2.617   3.940   1.591  0.2285 -0.7204  0.2477
16853SOL    HW152000   2.527   3.961   1.614  0.0742  1.5687 -1.9949
16853SOL    HW252001   2.670   4.005   1.638  0.7012 -1.6349  1.0271
16854SOL     OW52002   0.152   6.756   8.486 -0.1184  0.4217  0.3015
16854SOL    HW152003   0.133   6.848   8.508 -1.6917  0.2745 -0.3091
16854SOL    HW252004   0.094   6.706   8.544  0.8406 -0.2106  0.7338
16855SOL     OW52005   7.396   0.370  10.481  0.6528 -0.4608 -0.2974
16855SOL    HW152006   7.397   0.457  10.442  2.0915 -1.1319 -1.8701
16855SOL    HW252007   7.412   0.311  10.408  0.5473 -1.9902  0.8800
16856SOL     OW52008   7.653   5.751   9.895 -0.1096  0.1141 -0.1649
16856SOL    HW152009   7.650   5.661   9.861 -0.1086 -0.5642  1.5435
16856SOL    HW252010   7.741   5.782   9.873  0.6446 -1.0736  1.0270
16857SOL     OW52011   7.394   7.303   5.128  0.2973 -0.4411 -0.5960
16857SOL    HW152012   7.450   7.231   5.158  0.7784 -0.4164 -1.3849
16857SOL    HW252013   7.435   7.331   5.046 -1.2255 -0.8187 -1.5134
16858SOL     OW52014   1.083   4.927   6.698  0.1629  0.2074  0.3040
16858SOL    HW152015   1.084   5.010   6.745  1.1021 -0.1194  0.9039
16858SOL    HW252016   1.143   4.871   6.748 -0.3190 -0.7755 -0.1852
16859SOL     OW52017   5.238   3.100   6.880 -0.3474  0.7432 -0.7590
16859SOL    HW152018   5.188   3.021   6.902 -0.7114  0.9230 -0.9416
16859SOL    HW252019   5.172   3.168   6.868 -0.1903  0.6312 -2.5186
16860SOL     OW52020   1.056   7.165   5.433  0.4710  0.0381  0.5499
16860SOL    HW152021   0.971   7.138   5.468  1.1213 -2.3952  0.4342
16860SOL    HW252022   1.096   7.215   5.505 -0.6545  0.3865  0.9596
16861SOL     OW52023   5.434   7.573   1.638  0.2375 -0.1356 -0.0819
16861SOL    HW152024   5.510   7.544   1.690 -1.4850 -2.4762  1.3607
16861SOL    HW252025   5.463   7.653   1.595  3.0188 -0.1205  1.5859
16862SOL     OW52026   3.338   7.132   2.768 -0.1421  0.7792  0.0443
16862SOL    HW152027   3.335   7.109   2.861 -0.0007  0.6002  0.0029
16862SOL    HW252028   3.387   7.062   2.727 -0.6439  0.5937 -0.2454
16863SOL     OW52029   7.033   0.615   6.823 -0.1312 -0.0091  0.2814
16863SOL    HW152030   7.090   0.600   6.898 -0.2951 -1.6705  0.1086
16863SOL    HW252031   6.945   0.617   6.859 -0.2531 -1.3025  0.1129
16864SOL     OW52032   2.129   7.535  11.016  0.1582 -0.3023  0.2383
16864SOL    HW152033   2.182   7.458  11.039  1.4312 -0.1521 -1.8819
16864SOL    HW252034   2.191   7.608  11.017 -0.2973  0.1285 -0.8897
16865SOL     OW52035   6.893   7.440   2.234 -0.2682 -0.1956 -0.3322
16865SOL    HW152036   6.803   7.472   2.224 -0.4861  0.2007  2.1818
16865SOL    HW252037   6.940   7.512   2.276  0.2193 -1.7045  1.8927
16866SOL     OW52038   3.648   1.464   6.653  0.6674 -0.1718 -0.1848
16866SOL    HW152039   3.612   1.376   6.664  2.1744 -0.9943 -1.4104
16866SOL    HW252040   3.573   1.518   6.632 -0.1844 -1.3402 -0.2442
16867SOL     OW52041   1.854   1.834   4.904  0.1049  0.5288 -0.4839
16867SOL    HW152042   1.826   1.743   4.912  1.2146  0.2995  1.5815
16867SOL    HW252043   1.780   1.886   4.936  0.4889  0.1636  1.0500
16868SOL     OW52044   4.128   6.793  10.673 -0.3164 -0.2216  0.2784
16868SOL    HW152045   4.199   6.730  10.666 -0.7970 -0.8516  0.9138
16868SOL    HW252046   4.161   6.871  10.628  0.6125 -0.6348  0.2092
16869SOL     OW52047   5.772   3.265   3.511 -0.7979  0.1222 -0.3750
16869SOL    HW152048   5.685   3.258   3.549  0.2014 -0.2165  1.9883
16869SOL    HW252049   5.779   3.188   3.454 -2.0791  0.2433 -0.7294
16870SOL     OW52050   2.179   5.343  10.780 -0.0284 -0.6284 -0.0816
16870SOL    HW152051   2.254   5.305  10.735 -0.1846 -1.2064  0.1381
16870SOL    HW252052   2.213   5.424  10.819 -0.0235  0.2068 -1.7047
16871SOL     OW52053   6.459   1.466   9.464  0.3576  0.3218 -0.0774
16871SOL    HW152054   6.414   1.406   9.523 -1.9480  0.6428 -1.3648
16871SOL    HW252055   6.540   1.490   9.510 -0.8472 -0.1911  2.4791
16872SOL     OW52056   6.861   3.932   8.125 -0.6113  0.1503  0.3012
16872SOL    HW152057   6.848   4.004   8.063 -2.5887  0.0471  0.5192
16872SOL    HW252058   6.880   3.976   8.209  1.1978  0.3050 -0.1444
16873SOL     OW52059   2.100   0.298   8.225 -0.0918 -0.1422  0.2040
16873SOL    HW152060   2.110   0.382   8.271 -0.9761  1.6933 -2.6768
16873SOL    HW252061   2.031   0.253   8.274 -1.0519  1.7464  0.7126
16874SOL     OW52062   3.654   3.529  10.072  0.1598 -0.2221 -0.8881
16874SOL    HW152063   3.681   3.617  10.099  0.6481 -0.0598 -1.8603
16874SOL    HW252064   3.733   3.489  10.038 -0.0548 -1.0630 -0.4252
16875SOL     OW52065   7.106   1.451   9.308 -0.4195 -0.0428 -0.4479
16875SOL    HW152066   7.092   1.364   9.271  0.2681  0.3910 -1.7779
16875SOL    HW252067   7.193   1.446   9.348 -0.4749 -0.0356 -0.3266
16876SOL     OW52068   3.275   6.117   7.660  0.2267  0.2332  0.4336
16876SOL    HW152069   3.318   6.133   7.576  1.6695 -1.4683  0.7592
16876SOL    HW252070   3.200   6.062   7.639 -1.1653  2.2265 -0.0128
16877SOL     OW52071   1.722   3.685   9.301 -0.1387 -0.0090  0.1145
16877SOL    HW152072   1.662   3.615   9.274 -1.5802  1.3233 -0.2613
16877SOL    HW252073   1.693   3.707   9.390  1.2752 -0.8680  0.8201
16878SOL     OW52074   6.299   7.706   3.628  0.0892 -0.0420 -0.1676
16878SOL    HW152075   6.361   7.675   3.694 -1.6387 -0.7969  1.1890
16878SOL    HW252076   6.267   7.789   3.663 -1.2720 -0.7302  0.2916
16879SOL     OW52077   2.038   1.575   2.785  0.0836  0.4716  0.2567
16879SOL    HW152078   2.125   1.615   2.785  0.1314  0.3720  0.5821
16879SOL    HW252079   2.006   1.588   2.696  0.6436  0.0652 -0.0135
16880SOL     OW52080   0.972   7.237   1.129  0.0348  0.0291  0.0797
16880SOL    HW152081   1.009   7.325   1.117 -1.0439  0.5246  0.2276
16880SOL    HW252082   0.979   7.220   1.223  1.3601 -0.5742 -0.1078
16881SOL     OW52083   2.538   5.262  11.564 -0.4264 -0.0185  0.0590
16881SOL    HW152084   2.607   5.266  11.498 -0.1931 -1.9644  0.1348
16881SOL    HW252085   2.463   5.305  11.523 -0.4524 -1.6349 -1.7246
16882SOL     OW52086   2.736   3.220   1.320 -0.3242 -0.3292  0.2308
16882SOL    HW152087   2.821   3.263   1.320 -0.3501 -0.1832 -1.9641
16882SOL    HW252088   2.674   3.288   1.293 -0.6363 -1.2094 -1.4114
16883SOL     OW52089   0.671   7.523   4.345  0.2448 -0.0160 -0.3487
16883SOL    HW152090   0.669   7.528   4.250  0.3235 -0.5710 -0.3849
16883SOL    HW252091   0.605   7.456   4.366  1.1041 -0.8000 -0.0890
16884SOL     OW52092   4.543   2.572   9.267 -0.8925  0.4693  0.1408
16884SOL    HW152093   4.528   2.653   9.317  0.7927  1.9695 -1.6430
16884SOL    HW252094   4.560   2.601   9.178 -0.2710 -1.8847 -0.5809
16885SOL     OW52095   7.238   6.355  10.598  0.3863  0.3538  0.0864
16885SOL    HW152096   7.172   6.375  10.531 -0.0124  0.8345  0.6132
16885SOL    HW252097   7.199   6.284  10.648  0.4672  0.3341  0.1212
16886SOL     OW52098   5.769   5.541   6.224 -0.3551  0.1372 -0.0488
16886SOL    HW152099   5.824   5.576   6.154  0.3159  2.9876  1.7198
16886SOL    HW252100   5.689   5.514   6.180  0.0759  1.7004 -1.9627
16887SOL     OW52101   2.816   7.254   2.926  0.5908 -0.1840 -0.5968
16887SOL    HW152102   2.740   7.294   2.967  0.5633 -0.9731  0.1475
16887SOL    HW252103   2.857   7.325   2.876  0.5090  0.7505  0.6321
16888SOL     OW52104   7.527   6.161   4.063  0.1189  0.8463  0.3255
16888SOL    HW152105   7.550   6.254   4.058 -0.7563  1.0191 -1.1791
16888SOL    HW252106   7.464   6.156   4.134 -0.6024  1.6018 -0.2369
16889SOL     OW52107   3.291   5.138   0.577  0.0917 -0.1036 -0.1538
16889SOL    HW152108   3.384   5.116   0.577 -0.3733 -2.3270  0.8044
16889SOL    HW252109   3.288   5.229   0.607  1.9456  0.0137 -0.2084
16890SOL     OW52110   0.445   4.922   7.259  0.0291  0.2028 -0.1987
16890SOL    HW152111   0.526   4.974   7.266  0.8094 -0.8091 -1.3805
16890SOL    HW252112   0.475   4.833   7.245 -1.3157 -0.3111  0.0548
16891SOL     OW52113   5.687   6.274   6.715  0.1631 -0.3912 -0.1085
16891SOL    HW152114   5.628   6.346   6.740  0.4755 -0.2612  0.2616
16891SOL    HW252115   5.628   6.205   6.685 -0.2261 -0.4818  0.8177
16892SOL     OW52116   0.268   2.391   3.648  0.0146  0.0588  0.1496
16892SOL    HW152117   0.307   2.442   3.577  1.6924 -0.0740  0.9251
16892SOL    HW252118   0.205   2.335   3.605  1.2010 -0.2267 -1.3081
16893SOL     OW52119   1.502   4.363   5.664 -0.4776 -0.3351  0.1387
16893SOL    HW152120   1.449   4.287   5.642  1.5922 -2.3803  1.7893
16893SOL    HW252121   1.550   4.383   5.583  0.9294 -2.5427  0.3375
16894SOL     OW52122   4.068   5.327   8.609  0.3962 -0.1245  0.6978
16894SOL    HW152123   4.134   5.394   8.629 -1.1959  0.9604  2.6604
16894SOL    HW252124   4.034   5.301   8.695 -1.8834 -0.4746 -0.2500
16895SOL     OW52125   4.439   0.613   9.397  0.1408  0.0659 -0.0757
16895SOL    HW152126   4.481   0.692   9.434 -0.0926 -0.1239  0.6018
16895SOL    HW252127   4.493   0.541   9.429  1.7313  0.0281 -2.5157
16896SOL     OW52128   4.049   7.333   8.168 -0.2654  0.0660  0.3297
16896SOL    HW152129   4.030   7.244   8.138 -1.5262  0.0386  1.1499
16896SOL    HW252130   3.974   7.357   8.222  0.4548  1.3155  0.8200
16897SOL     OW52131   3.865   5.727  10.239 -0.1063  0.0434  0.2095
16897SOL    HW152132   3.916   5.767  10.168 -0.8063  0.5568 -0.0086
16897SOL    HW252133   3.931   5.680  10.291  0.4254 -0.3258 -0.7618
16898SOL     OW52134   5.920   5.008  10.073 -0.9424 -0.6565  0.0461
16898SOL    HW152135   5.874   5.026   9.991 -2.9497 -1.2908  0.9713
16898SOL    HW252136   5.898   5.081  10.130 -0.3070 -0.6801  0.3307
16899SOL     OW52137   4.322   0.749   7.778 -0.1766 -0.2621 -0.4017
16899SOL    HW152138   4.272   0.729   7.857 -0.8490  2.2469 -0.1280
16899SOL    HW252139   4.397   0.799   7.809  0.4350 -0.6512 -1.2185
16900SOL     OW52140   3.298   5.419   4.927  0.2123 -0.1510 -0.7589
16900SOL    HW152141   3.224   5.404   4.986  0.7978  1.0901  0.3754
16900SOL    HW252142   3.278   5.369   4.848 -2.5558  1.3002 -1.0965
16901SOL     OW52143   7.594   3.777   8.322  0.2826 -0.1628  0.0581
16901SOL    HW152144   7.629   3.810   8.406  0.9362  2.2677 -1.0722
16901SOL    HW252145   7.644   3.697   8.305  0.8919 -0.1158  1.4638
16902SOL     OW52146   2.647   5.888   5.394 -0.2159 -0.6377  0.1021
16902SOL    HW152147   2.593   5.810   5.387 -1.0211  0.0443 -1.7615
16902SOL    HW252148   2.734   5.855   5.417 -0.5881 -2.0546 -0.4123
16903SOL     OW52149   5.563   3.977   7.432  0.5137 -0.0456  0.6034
16903SOL    HW152150   5.582   4.017   7.518  1.3361  1.5439 -0.2723
16903SOL    HW252151   5.649   3.960   7.394  0.1576 -1.1141  0.2253
16904SOL     OW52152   1.901   4.606   0.427  0.1233 -0.1645  0.0575
16904SOL    HW152153   1.854   4.596   0.510  0.3541  1.5025  0.4239
16904SOL    HW252154   1.981   4.555   0.438 -0.2708 -0.7061  0.4917
16905SOL     OW52155   5.115   4.628   4.899 -0.1443  0.2587  0.4411
16905SOL    HW152156   5.190   4.574   4.873 -0.2929 -0.7381  1.9333
16905SOL    HW252157   5.139   4.717   4.874  1.4522 -0.0768  0.6773
16906SOL     OW52158   0.437   4.580   1.986 -0.1467  0.1673 -0.5408
16906SOL    HW152159   0.500   4.624   2.043  0.2403  0.4708 -1.1928
16906SOL    HW252160   0.443   4.487   2.011 -0.1065  0.3171  0.0230
16907SOL     OW52161   1.796   2.461   4.110 -0.0218  0.2552  0.3636
16907SOL    HW152162   1.749   2.378   4.106 -1.4434  1.0093  0.5308
16907SOL    HW252163   1.842   2.459   4.194 -1.2338  0.2126  1.0586
16908SOL     OW52164   3.372   4.285   2.342  0.2598  0.2177 -0.6587
16908SOL    HW152165   3.398   4.251   2.428  0.4762  1.4927 -0.1889
16908SOL    HW252166   3.287   4.245   2.325  0.1566  0.0384  0.2178
16909SOL     OW52167   6.019   7.433   1.001 -0.2226  0.1424 -0.4915
16909SOL    HW152168   5.950   7.494   1.025 -0.0549 -0.9766  3.4628
16909SOL    HW252169   6.099   7.486   0.999 -0.5819  0.6828 -0.9289
16910SOL     OW52170   3.325   4.269   6.814 -0.4302 -0.2013 -0.4077
16910SOL    HW152171   3.296   4.346   6.862 -0.2516 -0.0495 -0.5384
16910SOL    HW252172   3.362   4.212   6.880  0.7543  0.4477 -0.4807
16911SOL     OW52173   7.126   5.886   2.762 -0.7442  0.0688 -0.1019
16911SOL    HW152174   7.220   5.881   2.744 -0.9915 -1.5095 -1.1538
16911SOL    HW252175   7.116   5.965   2.815  1.1101  0.5165 -0.3477
16912SOL     OW52176   7.236   3.705   7.651  0.1708 -0.3210 -0.5475
16912SOL    HW152177   7.205   3.796   7.658 -0.5302 -0.6721  1.3920
16912SOL    HW252178   7.156   3.654   7.641  0.0541 -1.1143  3.1631
16913SOL     OW52179   3.271   3.227  11.853 -0.1650 -0.1099 -0.0698
16913SOL    HW152180   3.232   3.142  11.874 -1.6928  0.6877  0.4107
16913SOL    HW252181   3.366   3.211  11.857 -0.4084 -1.3962  1.6311
16914SOL     OW52182   4.578   1.898   3.989 -0.4254 -0.5049  0.6380
16914SOL    HW152183   4.495   1.901   3.942 -0.6836  2.5637  1.0808
16914SOL    HW252184   4.601   1.805   3.992 -3.6045 -1.4267  0.1230
16915SOL     OW52185   4.935   1.799   1.229 -0.5630 -0.6986 -0.3317
16915SOL    HW152186   4.899   1.863   1.289  2.1113  0.4459  0.1744
16915SOL    HW252187   4.940   1.718   1.280  0.5352 -0.0470  0.6353
16916SOL     OW52188   1.030   7.139   0.195  0.3329 -0.5497  0.0285
16916SOL    HW152189   0.945   7.164   0.159  0.9368  0.3543 -0.8345
16916SOL    HW252190   1.047   7.204   0.263  0.5307 -0.4674 -0.0999
16917SOL     OW52191   5.851   1.965   1.006  0.0063  0.1577 -0.8283
16917SOL    HW152192   5.934   1.997   1.041  0.3765  1.9679 -3.1471
16917SOL    HW252193   5.871   1.877   0.973  0.8262  0.3133 -0.7579
16918SOL     OW52194   3.447   0.299   1.079  0.1582  0.1961 -0.1992
16918SOL    HW152195   3.537   0.283   1.108  0.0853 -0.2818 -0.2246
16918SOL    HW252196   3.417   0.215   1.044 -0.3146  0.3358 -0.1467
16919SOL     OW52197   0.475   5.572   7.172 -0.1379 -0.0180  0.5525
16919SOL    HW152198   0.380   5.568   7.163 -0.1867  1.3686  0.1945
16919SOL    HW252199   0.501   5.642   7.112  1.0997 -0.3329  0.7045
16920SOL     OW52200   4.436   0.034  11.420  0.6602  0.1792  0.3055
16920SOL    HW152201   4.382   0.090  11.474 -1.5966 -1.1835 -0.4275
16920SOL    HW252202   4.482   0.095  11.361 -1.3246  1.3159 -0.1468
16921SOL     OW52203   0.813   0.507   3.242 -0.1385  0.4708 -0.4624
16921SOL    HW152204   0.836   0.600   3.234  1.6278 -0.0327 -2.0948
16921SOL    HW252205   0.888   0.461   3.205 -1.2540 -1.6049 -0.2803
16922SOL     OW52206   5.101   4.255   5.366  0.5438 -0.4259  0.1900
16922SOL    HW152207   5.173   4.193   5.372  1.1481  0.3350  0.9341
16922SOL    HW252208   5.134   4.325   5.309  0.4564  0.0063  0.6692
16923SOL     OW52209   1.485   4.815   1.477  0.3713  0.8048 -0.2194
16923SOL    HW152210   1.437   4.767   1.544 -0.6395  0.7470 -0.9622
16923SOL    HW252211   1.559   4.758   1.456 -2.1891 -1.8665 -2.9601
16924SOL     OW52212   7.635   4.614   3.283 -0.4003  0.0689 -0.6444
16924SOL    HW152213   7.607   4.536   3.330  1.6322 -2.1085 -2.7525
16924SOL    HW252214   7.713   4.644   3.331 -1.4409  1.1714  0.4332
16925SOL     OW52215   3.881   3.462   8.381 -0.6615  0.1927 -0.0154
16925SOL    HW152216   3.822   3.456   8.305 -0.9462  0.8122  0.1504
16925SOL    HW252217   3.952   3.400   8.361 -1.3247 -0.5062 -0.2525
16926SOL     OW52218   4.799   7.424  11.380 -0.1723 -0.0790 -0.2453
16926SOL    HW152219   4.789   7.508  11.334 -0.5089  1.3627  2.2633
16926SOL    HW252220   4.749   7.362  11.328  0.2650  1.1959 -2.3210
16927SOL     OW52221   2.019   2.246   3.881 -0.0721  0.5676  0.0249
16927SOL    HW152222   2.001   2.196   3.801  0.6570  1.1919 -0.5342
16927SOL    HW252223   2.085   2.310   3.856  2.2676 -1.0080  1.7660
16928SOL     OW52224   2.538   5.221   2.155  0.1295 -0.2554  0.4598
16928SOL    HW152225   2.628   5.205   2.183  0.5749  1.0893 -0.1508
16928SOL    HW252226   2.518   5.146   2.098  1.1903 -0.0939 -0.1465
16929SOL     OW52227   2.311   7.925   6.098  0.3104  0.5404  0.3439
16929SOL    HW152228   2.369   7.857   6.064 -0.0713  0.1791  0.3965
16929SOL    HW252229   2.359   7.964   6.170  0.8071  0.7840 -0.1179
16930SOL     OW52230   6.408   1.334  12.355 -0.3110  0.4464 -0.0829
16930SOL    HW152231   6.451   1.269  12.299  1.1555  2.1415 -1.0387
16930SOL    HW252232   6.366   1.394  12.293 -2.2053  0.0683  0.7941
16931SOL     OW52233   1.335   5.639   0.333  0.5609  0.5308  0.4393
16931SOL    HW152234   1.421   5.601   0.355  0.9986  1.6488  0.7404
16931SOL    HW252235   1.347   5.733   0.346 -0.7558  0.6929  0.5987
16932SOL     OW52236   2.449   4.956   0.257  0.0143  0.3457  0.3445
16932SOL    HW152237   2.514   5.009   0.211  0.6863 -0.7586  0.0007
16932SOL    HW252238   2.499   4.885   0.297 -0.8746 -0.0552  0.7792
16933SOL     OW52239   7.000   6.696   5.371 -0.1295 -0.2124  0.3343
16933SOL    HW152240   7.091   6.673   5.390  0.0615 -0.0357 -0.3275
16933SOL    HW252241   6.978   6.763   5.435  0.5814  0.5655 -0.2160
16934SOL     OW52242   4.041   7.877   4.629 -0.3750  0.5829 -0.5068
16934SOL    HW152243   4.016   7.791   4.595 -1.2919  0.2275  0.9882
16934SOL    HW252244   4.126   7.894   4.589 -0.7759 -0.4019 -1.8796
16935SOL     OW52245   2.460   1.604   8.401 -0.7294 -0.0409 -0.1771
16935SOL    HW152246   2.381   1.650   8.374  0.3833  1.6113 -0.7857
16935SOL    HW252247   2.532   1.662   8.376  0.6869 -1.4085  0.4940
16936SOL     OW52248   6.797   6.401   8.873  0.1222  0.1612  0.4038
16936SOL    HW152249   6.735   6.421   8.803 -0.7014  0.3099  1.1635
16936SOL    HW252250   6.757   6.329   8.922  1.6568 -1.3880 -0.4890
16937SOL     OW52251   5.836   1.758   4.039  0.2945  1.0220  0.7046
16937SOL    HW152252   5.826   1.765   3.945 -1.9208 -1.2234  0.6676
16937SOL    HW252253   5.834   1.848   4.071 -0.4079  1.7426 -1.2744
16938SOL     OW52254   0.740   5.787  11.938  0.4297 -0.3076  0.5902
16938SOL    HW152255   0.673   5.769  12.004 -0.4276  0.5207 -0.0278
16938SOL    HW252256   0.721   5.726  11.867 -0.2309  0.5336  0.0356
16939SOL     OW52257   7.217   7.698   0.330  0.4094 -0.3125 -0.0919
16939SOL    HW152258   7.199   7.613   0.370 -1.5825  0.7622  1.5299
16939SOL    HW252259   7.291   7.733   0.380  1.2857 -1.0831 -0.8165
16940SOL     OW52260   4.899   7.853   6.906 -0.3940  0.2735 -0.4421
16940SOL    HW152261   4.884   7.802   6.986 -0.1433 -0.3867 -0.8052
16940SOL    HW252262   4.813   7.863   6.867 -0.2995 -1.0095 -1.0327
16941SOL     OW52263   6.018   3.617   2.887  0.0691  0.2686 -0.0487
16941SOL    HW152264   5.956   3.545   2.883 -1.0783  1.2614 -1.8937
16941SOL    HW252265   6.101   3.579   2.857 -0.3058 -0.4644 -0.1828
16942SOL     OW52266   1.463   7.913   2.450  0.5412  0.3050  0.0865
16942SOL    HW152267   1.456   7.897   2.356  2.7531  1.1335 -0.2885
16942SOL    HW252268   1.480   8.007   2.457  1.8197  0.0232  1.1937
16943SOL     OW52269   4.419   1.762  11.483  0.5114  0.0660  0.0862
16943SOL    HW152270   4.345   1.745  11.542  0.6030 -1.5135 -0.2071
16943SOL    HW252271   4.482   1.810  11.537 -0.1121  0.1397  0.7729
16944SOL     OW52272   0.585   1.843   8.857  0.2613 -0.6067 -0.1588
16944SOL    HW152273   0.532   1.910   8.901 -0.3789  0.3797 -2.2672
16944SOL    HW252274   0.535   1.822   8.778  2.0658 -1.1317 -1.2143
16945SOL     OW52275   6.302   5.435   0.205 -0.0585 -0.6110  0.1087
16945SOL    HW152276   6.356   5.462   0.130 -0.1751 -1.3011 -0.2300
16945SOL    HW252277   6.289   5.341   0.193  0.9494 -0.9864  1.6579
16946SOL     OW52278   2.694   5.406   4.342  0.5079  0.9571 -0.0055
16946SOL    HW152279   2.773   5.361   4.313 -0.3662 -0.0040 -0.9947
16946SOL    HW252280   2.723   5.495   4.363  1.9052  0.5099  0.0396
16947SOL     OW52281   0.998   1.938  11.670  0.3634  0.0172  0.1483
16947SOL    HW152282   1.093   1.950  11.663  0.2805  0.9636  0.4102
16947SOL    HW252283   0.962   1.984  11.594  0.1256 -0.6258 -0.1356
16948SOL     OW52284   5.308   1.635   9.977  0.0581  0.1268 -0.3447
16948SOL    HW152285   5.327   1.710   9.921  0.1858  0.0977 -0.3420
16948SOL    HW252286   5.237   1.589   9.932 -0.7993  0.8616  0.2279
16949SOL     OW52287   6.025   4.411   2.140 -0.0973 -0.1786 -0.2192
16949SOL    HW152288   6.066   4.489   2.178 -0.0762 -0.9014  1.3694
16949SOL    HW252289   5.954   4.390   2.201  0.6124 -2.0267  0.0406
16950SOL     OW52290   6.987   3.505  10.033  0.0493  0.0046  0.0276
16950SOL    HW152291   6.943   3.492  10.117 -0.9282  0.0911 -0.4469
16950SOL    HW252292   7.002   3.599  10.028  0.4109 -0.0413  0.2508
16951SOL     OW52293   4.513   4.172   5.589  0.6450  0.7040 -0.0880
16951SOL    HW152294   4.478   4.105   5.529  0.8545  0.2011  0.3419
16951SOL    HW252295   4.570   4.226   5.534  1.3960 -0.1818 -0.2023
16952SOL     OW52296   4.113   0.584  11.002  0.0536 -0.3167 -0.4499
16952SOL    HW152297   4.101   0.572  11.096 -0.0255  2.1755 -0.0782
16952SOL    HW252298   4.120   0.679  10.990  0.5709 -0.5884 -2.9078
16953SOL     OW52299   4.588   2.717  10.375 -0.1018  0.6242 -0.3086
16953SOL    HW152300   4.567   2.634  10.333  2.2013 -0.4215  0.4568
16953SOL    HW252301   4.524   2.725  10.446  0.3255 -1.0934  0.3196
16954SOL     OW52302   2.979   0.302   6.024  0.2517  0.3843  0.4772
16954SOL    HW152303   2.996   0.385   6.068  0.5093  2.1006 -2.5579
16954SOL    HW252304   2.885   0.304   6.006  0.5083  0.8024 -0.9340
16955SOL     OW52305   7.822   1.191   9.731  0.4959 -0.2305 -0.2939
16955SOL    HW152306   7.889   1.143   9.780 -0.0674 -2.1448 -1.3064
16955SOL    HW252307   7.784   1.126   9.671 -0.5709  1.4045 -1.4895
16956SOL     OW52308   2.366   4.598   2.663  0.2249  0.1543 -0.1552
16956SOL    HW152309   2.350   4.627   2.574 -0.9047 -0.2339 -0.1041
16956SOL    HW252310   2.278   4.591   2.702  0.7134  0.8543  1.1607
16957SOL     OW52311   1.812   6.733   6.933 -0.3672  0.0533  0.1472
16957SOL    HW152312   1.856   6.818   6.941 -1.6778  0.8579 -0.8180
16957SOL    HW252313   1.883   6.672   6.911  0.2518  1.3919 -1.8509
16958SOL     OW52314   6.524   1.657   7.806  0.2426  0.4774  0.2266
16958SOL    HW152315   6.617   1.670   7.790  0.0848 -0.3922 -1.6897
16958SOL    HW252316   6.485   1.743   7.795  0.8633  0.9513  1.5888
16959SOL     OW52317   5.131   2.164   0.153  0.3027  0.4388 -0.5869
16959SOL    HW152318   5.129   2.077   0.194 -2.1123  0.8916  0.4582
16959SOL    HW252319   5.126   2.146   0.059  1.1244 -0.5617 -0.4514
16960SOL     OW52320   0.272   4.550   9.882  0.3581  0.0464  0.1580
16960SOL    HW152321   0.258   4.526   9.973 -1.9902 -0.7793 -0.3507
16960SOL    HW252322   0.363   4.526   9.864  0.4852 -0.9342  1.9254
16961SOL     OW52323   1.169   1.143   3.609 -0.6115 -0.5779 -0.0544
16961SOL    HW152324   1.162   1.228   3.652 -1.0561 -1.0889  0.9235
16961SOL    HW252325   1.234   1.156   3.540  0.0372  0.3050  0.6941
16962SOL     OW52326   6.811   1.453   9.301 -0.4692  0.1994  0.3483
16962SOL    HW152327   6.900   1.486   9.316 -0.0719 -0.3672 -0.6375
16962SOL    HW252328   6.790   1.480   9.212 -0.2451 -1.8776 -0.3883
16963SOL     OW52329   5.333   3.351   3.553 -0.7336  0.0090 -0.0653
16963SOL    HW152330   5.419   3.316   3.577 -1.2487 -1.9215 -0.7973
16963SOL    HW252331   5.352   3.427   3.499  0.5889 -1.2256 -1.4346
16964SOL     OW52332   1.326   5.633   2.037 -0.1567  0.0202  0.6807
16964SOL    HW152333   1.345   5.721   2.071  0.1792 -0.0492  0.6735
16964SOL    HW252334   1.402   5.581   2.062  1.2158  0.5014 -2.1038
16965SOL     OW52335   1.725   7.259   9.295  0.0112 -0.0862  0.4307
16965SOL    HW152336   1.635   7.239   9.320 -0.5323 -1.2782 -2.1454
16965SOL    HW252337   1.717   7.331   9.232  0.8270 -0.3627 -0.0024
16966SOL     OW52338   5.701   7.097   8.058  0.1655  0.0259 -0.2886
16966SOL    HW152339   5.736   7.076   8.144  0.3804  1.8793  0.1307
16966SOL    HW252340   5.615   7.136   8.076  0.1284  0.2544 -0.9234
16967SOL     OW52341   5.625   2.868  10.037  0.5894 -0.0600 -0.0820
16967SOL    HW152342   5.618   2.825  10.122 -2.0301 -1.1043 -0.7327
16967SOL    HW252343   5.592   2.803   9.975  2.2076  0.7610 -1.8934
16968SOL     OW52344   4.043   6.348   0.789 -0.0439  0.2140  0.0589
16968SOL    HW152345   3.996   6.389   0.717  0.4628  0.3139 -0.2113
16968SOL    HW252346   4.117   6.304   0.748 -1.3927 -2.3066  0.1104
16969SOL     OW52347   5.810   3.239   1.557  0.2066 -0.2082  0.1605
16969SOL    HW152348   5.837   3.176   1.490  0.6229  0.2593 -0.1260
16969SOL    HW252349   5.758   3.188   1.619  0.0196 -0.7007 -0.3896
16970SOL     OW52350   1.837   2.975   3.616 -0.3891  0.2615 -0.2425
16970SOL    HW152351   1.819   2.904   3.678 -1.8653  1.1140  0.3560
16970SOL    HW252352   1.760   3.031   3.621  0.6565  1.8175 -0.8434
16971SOL     OW52353   1.143   7.764  11.845  0.4417 -0.3661 -0.0933
16971SOL    HW152354   1.139   7.704  11.920  0.7929 -0.0281  0.2032
16971SOL    HW252355   1.236   7.766  11.821  0.0484 -2.4288 -2.1616
16972SOL     OW52356   2.804   6.230   4.442 -0.0660 -0.3035  0.6175
16972SOL    HW152357   2.758   6.312   4.462 -2.1250 -1.2632  0.1057
16972SOL    HW252358   2.748   6.162   4.478  1.4697 -1.5366  0.7814
16973SOL     OW52359   7.329   5.359   6.512 -0.5212  0.3177 -0.1851
16973SOL    HW152360   7.259   5.370   6.449 -0.7720 -3.3757 -0.7868
16973SOL    HW252361   7.285   5.346   6.596 -0.2488  3.4546  0.5381
16974SOL     OW52362   2.646   4.025   1.274  0.2939 -0.3555 -0.5420
16974SOL    HW152363   2.646   3.930   1.289  0.1628 -0.2516  0.1577
16974SOL    HW252364   2.738   4.048   1.263  0.4071 -0.4290  0.2160
16975SOL     OW52365   5.838   6.228   5.130 -0.1251 -0.5006 -0.1874
16975SOL    HW152366   5.759   6.187   5.164 -1.1711  0.6475 -1.1687
16975SOL    HW252367   5.876   6.162   5.072 -2.9926  0.5250 -3.5631
16976SOL     OW52368   7.410   1.272   0.715 -0.7442  0.7714  0.0523
16976SOL    HW152369   7.400   1.178   0.734  0.8854  0.6245  0.3331
16976SOL    HW252370   7.396   1.315   0.799  0.1711  0.6323  0.2845
16977SOL     OW52371   2.906   1.242   5.405 -0.8007 -0.2266  0.0581
16977SOL    HW152372   2.815   1.216   5.417 -0.4916 -0.3688  2.4547
16977SOL    HW252373   2.932   1.279   5.489  1.7981 -1.5804 -0.0496
16978SOL     OW52374   0.823   5.002   9.059  0.0874 -0.2571  0.2099
16978SOL    HW152375   0.800   5.086   9.019  0.6413 -0.9464 -1.6372
16978SOL    HW252376   0.783   5.006   9.146 -0.4337  1.6565 -0.0686
16979SOL     OW52377   5.526   7.031   5.307  0.0546 -0.0242  0.2293
16979SOL    HW152378   5.583   7.096   5.349  1.2033 -0.5679 -0.4333
16979SOL    HW252379   5.570   6.947   5.323  0.4031 -0.2851 -1.8060
16980SOL     OW52380   0.947   7.632   0.253 -0.3080 -0.3153  0.0756
16980SOL    HW152381   1.006   7.692   0.208  0.9160 -1.2366  0.3777
16980SOL    HW252382   0.919   7.570   0.185  0.9513 -1.2643  0.3931
16981SOL     OW52383   5.389   7.474   5.894 -0.2108 -0.1402 -0.7023
16981SOL    HW152384   5.451   7.501   5.962 -0.6362  0.1917 -0.4442
16981SOL    HW252385   5.328   7.415   5.940 -0.1092 -0.4412 -0.9480
16982SOL     OW52386   4.598   4.350   6.777 -0.3852  1.1155 -0.1579
16982SOL    HW152387   4.568   4.301   6.700 -2.5207  0.1998  1.1482
16982SOL    HW252388   4.665   4.294   6.816  0.5662  1.4899 -1.1904
16983SOL     OW52389   2.089   2.267   6.450  0.0228  0.6606 -0.5604
16983SOL    HW152390   2.047   2.292   6.532 -0.0085 -0.9986 -0.0384
16983SOL    HW252391   2.015   2.244   6.392  0.0428  1.8375 -1.0770
16984SOL     OW52392   2.266   0.730  12.291 -0.1077 -0.4798 -0.4904
16984SOL    HW152393   2.331   0.663  12.309 -0.5302 -0.6108  0.6036
16984SOL    HW252394   2.298   0.809  12.335  0.2597 -0.0077 -1.5580
16985SOL     OW52395   1.716   3.075   7.359 -0.0976 -0.0224  0.2303
16985SOL    HW152396   1.716   3.158   7.313 -2.4360  0.8075  1.5879
16985SOL    HW252397   1.798   3.033   7.333 -0.2223  1.3846 -2.7788
16986SOL     OW52398   1.334   2.574   3.016  0.1196 -0.2753 -0.0101
16986SOL    HW152399   1.360   2.570   3.107 -0.5943 -1.7661  0.1714
16986SOL    HW252400   1.246   2.612   3.017  0.0081 -0.5254 -0.0362
16987SOL     OW52401   5.660   2.270  11.369  0.2632 -0.8376  0.2236
16987SOL    HW152402   5.687   2.263  11.277  0.6350  0.0607  0.2529
16987SOL    HW252403   5.725   2.219  11.417  1.9716  1.2780  0.2934
16988SOL     OW52404   6.427   5.000   1.359  0.4001 -0.0725  0.3251
16988SOL    HW152405   6.380   4.975   1.439  0.2529 -0.8293  0.0147
16988SOL    HW252406   6.463   4.917   1.326  0.1004  0.1587 -0.6120
16989SOL     OW52407   5.251   5.377  11.878  0.5287 -0.1123 -0.2246
16989SOL    HW152408   5.284   5.295  11.840 -0.9689  0.0889 -2.1295
16989SOL    HW252409   5.177   5.401  11.822  0.8243  2.4804  0.3807
16990SOL     OW52410   6.935   6.164   4.649 -0.6132  0.7722  0.3977
16990SOL    HW152411   6.854   6.142   4.604  0.1417 -0.7832 -0.2658
16990SOL    HW252412   6.937   6.105   4.725  0.5618 -0.2715 -0.3983
16991SOL     OW52413   3.871   7.284   7.849  0.5182 -0.2089 -0.1726
16991SOL    HW152414   3.817   7.331   7.912 -0.4983 -2.9230  1.1338
16991SOL    HW252415   3.918   7.219   7.901  1.5043 -0.9839 -1.9175
16992SOL     OW52416   7.767   6.876   6.345 -0.6207 -0.0721  0.3139
16992SOL    HW152417   7.691   6.883   6.402 -0.4017  2.7692  0.4159
16992SOL    HW252418   7.842   6.894   6.402  0.3948 -3.7351  0.4362
16993SOL     OW52419   7.056   7.525   4.661  0.3223 -0.4632 -0.3756
16993SOL    HW152420   7.080   7.595   4.721  1.8801  0.0816 -1.5714
16993SOL    HW252421   6.990   7.563   4.604 -1.1822 -0.9897  0.9274
16994SOL     OW52422   5.895   5.517   5.967 -0.3948 -0.4282 -0.2380
16994SOL    HW152423   5.979   5.560   5.953 -0.7810  0.4443  0.0728
16994SOL    HW252424   5.917   5.436   6.013  0.2797 -0.2266 -0.1958
16995SOL     OW52425   4.870   2.006   8.439  0.0028 -0.2301  0.3429
16995SOL    HW152426   4.847   2.099   8.435  2.2309  0.3688 -0.7531
16995SOL    HW252427   4.866   1.984   8.532  0.8178  1.3990  0.8054
16996SOL     OW52428   5.563   0.228   8.244 -0.3234  0.3118 -0.4423
16996SOL    HW152429   5.496   0.240   8.177  0.4023  2.6409 -0.8375
16996SOL    HW252430   5.523   0.169   8.308 -1.7787 -0.3512 -1.9007
16997SOL     OW52431   4.913   5.636   9.398 -0.0260 -0.0205 -0.8893
16997SOL    HW152432   4.887   5.555   9.442 -0.4097  0.3718 -0.3799
16997SOL    HW252433   4.886   5.624   9.307  1.8706 -1.3374 -1.3393
16998SOL     OW52434   0.091   4.879  11.770 -0.0905  0.5204 -0.4589
16998SOL    HW152435   0.159   4.890  11.837  0.4225 -2.4692 -0.3204
16998SOL    HW252436   0.133   4.823  11.704 -2.0457 -0.4249 -0.9558
16999SOL     OW52437   4.323   3.805   3.708 -0.1723  0.3796 -0.7819
16999SOL    HW152438   4.305   3.773   3.796  3.0734  0.0176 -0.1356
16999SOL    HW252439   4.340   3.898   3.719  0.2006  0.3422 -1.0252
17000SOL     OW52440   4.564   7.329   1.866  0.1278  0.2057  0.5736
17000SOL    HW152441   4.593   7.416   1.838 -2.1125  0.4612 -1.2180
17000SOL    HW252442   4.592   7.270   1.796 -3.5773  0.5128 -1.4067
17001SOL     OW52443   1.471   0.490  10.970 -0.2930  0.2502 -0.0782
17001SOL    HW152444   1.478   0.412  10.916  2.1406  0.5142 -0.2741
17001SOL    HW252445   1.408   0.468  11.038 -0.0113 -1.7006 -0.4136
17002SOL     OW52446   5.417   4.994   3.854  0.2201  0.4983 -0.0965
17002SOL    HW152447   5.482   4.982   3.784 -1.3218 -1.3932 -1.2903
17002SOL    HW252448   5.360   4.918   3.848 -1.7886  1.7809  1.2964
17003SOL     OW52449   1.725   0.443   4.820 -0.0433  0.3163 -0.1097
17003SOL    HW152450   1.653   0.400   4.773  0.3318  0.6021 -0.9503
17003SOL    HW252451   1.754   0.377   4.884 -0.0812 -0.3486 -0.7656
17004SOL     OW52452   3.334   5.726   1.615  0.4220  0.0007  0.0169
17004SOL    HW152453   3.303   5.795   1.556  1.2190 -0.1794 -0.6266
17004SOL    HW252454   3.276   5.731   1.691 -1.9469 -1.0621 -1.6043
17005SOL     OW52455   6.498   4.905  10.407  0.3529 -0.0233  0.0422
17005SOL    HW152456   6.424   4.963  10.387  0.2484  0.0069  0.5019
17005SOL    HW252457   6.525   4.871  10.322 -0.0859  0.0934 -0.1487
17006SOL     OW52458   5.365   4.297   9.949 -0.4219  0.6054  0.2007
17006SOL    HW152459   5.350   4.209   9.917  0.8171  0.2345  0.5560
17006SOL    HW252460   5.460   4.307   9.946 -0.4537  1.4609  1.3440
17007SOL     OW52461   4.076   7.736  10.640 -0.3845  0.5173  0.2885
17007SOL    HW152462   4.151   7.750  10.583 -0.9352 -1.4875 -1.0327
17007SOL    HW252463   4.014   7.687  10.586 -0.8151 -1.7965  2.6803
17008SOL     OW52464   6.663   5.718   5.288  0.0510 -0.0067  0.5497
17008SOL    HW152465   6.703   5.642   5.330  0.0309 -1.4919 -1.9339
17008SOL    HW252466   6.669   5.700   5.194 -0.9953  2.5522 -0.1011
17009SOL     OW52467   3.009   5.453   8.928  0.2191  0.2874 -0.4573
17009SOL    HW152468   2.919   5.483   8.911  0.3527  2.1157  1.6182
17009SOL    HW252469   3.011   5.436   9.023  2.6516  2.7637  0.0797
17010SOL     OW52470   7.753   4.961  10.156  1.0704  0.1174 -0.1128
17010SOL    HW152471   7.818   4.965  10.226  1.9525  2.2429 -0.9714
17010SOL    HW252472   7.804   4.974  10.076 -0.4192  2.0605 -0.7995
17011SOL     OW52473   4.639   3.051   1.902 -0.2819  0.2364  0.0213
17011SOL    HW152474   4.677   2.963   1.902  0.5538  0.5748  1.2249
17011SOL    HW252475   4.559   3.043   1.850  0.0964 -1.0921 -0.3871
17012SOL     OW52476   3.311   0.053   3.028  0.3196 -0.0879 -0.0717
17012SOL    HW152477   3.225   0.077   2.993 -0.0510 -0.9557  0.2160
17012SOL    HW252478   3.370   0.122   2.997 -0.6377  0.9973  0.4658
17013SOL     OW52479   0.899   4.519   8.450 -0.0878  0.2187 -0.4179
17013SOL    HW152480   0.827   4.582   8.448 -0.3963 -0.1263 -0.0883
17013SOL    HW252481   0.885   4.467   8.529 -0.1784 -0.6742 -1.0073
17014SOL     OW52482   1.082   7.511   8.444  0.2739  0.6164 -0.2027
17014SOL    HW152483   1.045   7.534   8.529 -0.6891 -1.5458  0.0312
17014SOL    HW252484   1.008   7.518   8.384  0.8679  1.7891 -0.8303
17015SOL     OW52485   1.712   6.224   5.037  0.3187 -0.1085 -0.5601
17015SOL    HW152486   1.785   6.227   5.099 -0.8503 -1.7169  1.0134
17015SOL    HW252487   1.638   6.260   5.086 -1.0837 -3.1366 -0.2058
17016SOL     OW52488   2.585   4.636   0.690  0.1833 -0.1401  0.6744
17016SOL    HW152489   2.617   4.705   0.747  0.0664 -1.4219  2.3594
17016SOL    HW252490   2.654   4.569   0.692 -0.4563 -0.8167  0.4323
17017SOL     OW52491   4.648   1.582   2.762 -0.7793 -0.6294  0.1718
17017SOL    HW152492   4.643   1.505   2.705 -2.6958  0.0811 -0.7015
17017SOL    HW252493   4.647   1.545   2.851  0.3814 -1.6656 -0.2124
17018SOL     OW52494   6.528   2.543   7.771  0.3082 -0.0212  0.1431
17018SOL    HW152495   6.466   2.596   7.822  2.2238  2.9029 -0.2971
17018SOL    HW252496   6.580   2.497   7.837 -1.6196 -1.7423  0.5343
17019SOL     OW52497   6.672   3.193  12.429  0.6124 -0.1721 -0.2933
17019SOL    HW152498   6.745   3.231  12.379  1.2447  0.3654  0.9911
17019SOL    HW252499   6.645   3.263  12.489  0.4489 -1.0621  0.7052
17020SOL     OW52500   5.954   1.229   8.474  0.5451  0.4869  0.0648
17020SOL    HW152501   5.988   1.309   8.434  2.2093 -0.1889  0.0698
17020SOL    HW252502   5.948   1.249   8.567  1.1425  0.5443  0.0914
17021SOL     OW52503   4.986   4.503   9.038  0.0566 -0.5241 -0.1824
17021SOL    HW152504   4.932   4.447   9.093 -0.3017  0.0729  0.0832
17021SOL    HW252505   4.945   4.498   8.951 -0.8071  0.3944  0.1490
17022SOL     OW52506   1.237   4.537   1.284 -0.2158  0.0065 -0.4183
17022SOL    HW152507   1.302   4.468   1.299 -0.6213 -0.2896  0.0042
17022SOL    HW252508   1.178   4.531   1.359 -0.5525  0.4758 -0.6423
17023SOL     OW52509   4.326   7.309  12.403  0.8850 -0.2394 -0.0966
17023SOL    HW152510   4.343   7.400  12.378 -0.8182  0.6032  1.5630
17023SOL    HW252511   4.317   7.263  12.320  0.3340  1.4038 -1.0032
17024SOL     OW52512   4.793   4.160   0.185  0.5643 -0.6909 -0.5366
17024SOL    HW152513   4.754   4.073   0.179 -1.7820  0.2784 -0.8176
17024SOL    HW252514   4.793   4.180   0.279  1.1106 -1.0046 -0.4722
17025SOL     OW52515   2.508   7.288   9.782 -0.0573  0.7616  0.1542
17025SOL    HW152516   2.551   7.204   9.798 -2.2779 -0.5032 -0.1206
17025SOL    HW252517   2.565   7.333   9.721  0.4157 -1.2416 -0.9647
17026SOL     OW52518   6.602   4.910   9.486  0.0053  0.5410  0.4434
17026SOL    HW152519   6.603   4.860   9.568 -0.9006 -0.5009 -0.1512
17026SOL    HW252520   6.665   4.980   9.500  1.0870 -0.5818  1.4252
17027SOL     OW52521   6.467   4.696   3.236  0.0088 -0.1199 -0.0543
17027SOL    HW152522   6.453   4.790   3.227  0.1714 -0.1422 -0.6404
17027SOL    HW252523   6.410   4.657   3.169  1.4227 -0.3083 -1.2216
17028SOL     OW52524   6.485   7.617   5.098  0.4991  0.6771 -0.4389
17028SOL    HW152525   6.533   7.683   5.149  0.7776  0.4039 -0.3445
17028SOL    HW252526   6.448   7.666   5.025  1.7223  0.7269 -1.0487
17029SOL     OW52527   5.054   0.646  11.059  0.1294  0.0242  0.1296
17029SOL    HW152528   5.033   0.647  11.152 -1.5462  0.2117 -0.2081
17029SOL    HW252529   5.001   0.717  11.022 -1.7090 -1.9899 -1.3869
17030SOL     OW52530   5.602   4.376   4.627  0.0385  0.2055  0.4253
17030SOL    HW152531   5.670   4.423   4.676  1.8788 -0.6031 -1.2398
17030SOL    HW252532   5.615   4.403   4.536 -2.0916  0.2357  0.0898
17031SOL     OW52533   7.187   0.328   7.526 -0.1196 -0.6358 -0.2099
17031SOL    HW152534   7.249   0.337   7.454  1.1184  0.6756  0.9490
17031SOL    HW252535   7.108   0.294   7.485  1.0551 -1.4921 -1.8945
17032SOL     OW52536   2.712   2.356   0.164 -0.1917 -0.5302 -0.2911
17032SOL    HW152537   2.702   2.341   0.069 -1.0490  0.1963 -0.3344
17032SOL    HW252538   2.759   2.439   0.170 -0.9861 -0.0837 -0.0964
17033SOL     OW52539   0.915   4.753   5.221  0.1459  0.3500  0.7716
17033SOL    HW152540   0.974   4.815   5.262 -0.0098  0.8949  0.1954
17033SOL    HW252541   0.889   4.693   5.291  1.6037 -0.0871  0.9691
17034SOL     OW52542   3.205   3.136   3.632 -0.0696 -0.2796  0.0263
17034SOL    HW152543   3.171   3.165   3.547 -0.8062  0.1550  0.4636
17034SOL    HW252544   3.292   3.174   3.637  0.3118 -0.9854 -0.8871
17035SOL     OW52545   0.508   6.028   0.582  0.0631 -0.7474 -0.2887
17035SOL    HW152546   0.472   6.059   0.499 -0.9486 -1.3341 -0.0789
17035SOL    HW252547   0.444   6.054   0.648  0.0317 -1.7450  0.0978
17036SOL     OW52548   6.979   0.496   8.325 -0.2334  0.4182 -0.2493
17036SOL    HW152549   7.045   0.563   8.341 -0.3027  0.0800  1.7840
17036SOL    HW252550   6.994   0.431   8.393 -0.6265 -1.2966 -1.7189
17037SOL     OW52551   0.599   5.156   4.129 -0.2243  0.4440 -0.4823
17037SOL    HW152552   0.693   5.139   4.122 -0.8316 -3.8576 -0.6884
17037SOL    HW252553   0.587   5.186   4.219  1.2284 -0.1667 -0.0499
17038SOL     OW52554   2.830   5.063  11.316 -0.7974 -0.0371 -0.0115
17038SOL    HW152555   2.878   5.015  11.383 -0.2423  1.3843  0.6297
17038SOL    HW252556   2.855   5.154  11.328  0.6423  0.1114 -3.2024
17039SOL     OW52557   4.507   1.933   0.207  0.5934  0.1821 -0.8019
17039SOL    HW152558   4.469   1.983   0.135  1.0781  0.1284 -1.0970
17039SOL    HW252559   4.587   1.895   0.171  2.6554  2.8254  0.6373
17040SOL     OW52560   5.170   1.457   0.605  0.5928 -0.1862 -0.2231
17040SOL    HW152561   5.238   1.449   0.672 -0.7946 -2.3590  1.0939
17040SOL    HW252562   5.122   1.537   0.629  0.7165 -0.4065  0.8291
17041SOL     OW52563   5.741   2.090   5.780 -0.2148 -0.3660  0.6074
17041SOL    HW152564   5.737   2.182   5.805  0.7730 -0.0430 -0.3465
17041SOL    HW252565   5.657   2.073   5.737 -0.2294  0.2152  0.3909
17042SOL     OW52566   4.664   6.230   2.196  0.0226  0.0694  0.4723
17042SOL    HW152567   4.575   6.227   2.231 -0.6998  0.7923 -1.1855
17042SOL    HW252568   4.718   6.260   2.269 -1.4099  1.4668  1.0173
17043SOL     OW52569   1.130   6.598   0.850 -0.0879 -0.3833  0.8425
17043SOL    HW152570   1.045   6.554   0.842 -0.4634  0.4010  0.4394
17043SOL    HW252571   1.192   6.539   0.807 -0.6287 -0.4023  0.0762
17044SOL     OW52572   5.552   6.499   8.605  0.0076  0.0677 -0.0765
17044SOL    HW152573   5.468   6.453   8.608  0.2423 -0.3151  0.9503
17044SOL    HW252574   5.528   6.592   8.604 -0.4586 -0.0327 -1.7482
17045SOL     OW52575   6.466   0.223   9.034  0.5712 -0.6749  0.0302
17045SOL    HW152576   6.437   0.271   8.956  0.4397 -0.7848  0.0098
17045SOL    HW252577   6.560   0.216   9.024  0.6735  0.1341  0.3524
17046SOL     OW52578   4.941   5.201  12.083 -0.1560  0.4138 -0.1234
17046SOL    HW152579   4.904   5.150  12.155 -0.6608 -0.4633 -0.9836
17046SOL    HW252580   4.993   5.269  12.126 -0.7767  0.1585  1.0685
17047SOL     OW52581   6.825   2.560   1.645 -1.0523  0.1336  0.0577
17047SOL    HW152582   6.778   2.539   1.726 -0.3997  0.8215  0.6356
17047SOL    HW252583   6.911   2.589   1.675 -0.9196  0.7205 -0.8632
17048SOL     OW52584   2.801   0.361   3.889  0.4997  0.4191  0.0628
17048SOL    HW152585   2.710   0.391   3.883  0.1129 -0.6387  0.4881
17048SOL    HW252586   2.825   0.339   3.799  0.5343  1.2523 -0.1383
17049SOL     OW52587   2.464   1.250   0.695  0.2215 -0.8609 -0.2813
17049SOL    HW152588   2.385   1.197   0.694  0.3687 -1.0996 -1.2995
17049SOL    HW252589   2.461   1.299   0.613  0.5548  0.0091  0.2123
17050SOL     OW52590   1.395   6.748  11.310  0.3007  0.6423 -0.0201
17050SOL    HW152591   1.331   6.815  11.287 -1.4815 -0.3302  1.8028
17050SOL    HW252592   1.385   6.736  11.405  0.0146 -2.6457 -0.3369
17051SOL     OW52593   2.887   5.584   3.360 -0.0745  0.6867 -0.6732
17051SOL    HW152594   2.958   5.640   3.391  0.1877  0.6055 -1.1202
17051SOL    HW252595   2.919   5.495   3.374 -0.8235  0.6199  0.8184
17052SOL     OW52596   1.200   2.251   5.139 -0.5761 -0.0784 -0.3192
17052SOL    HW152597   1.198   2.198   5.059  0.4627 -0.2753 -0.2276
17052SOL    HW252598   1.216   2.340   5.108  0.7017 -0.2831 -0.2927
17053SOL     OW52599   6.357   5.194  11.418 -0.5311  0.3684 -0.0308
17053SOL    HW152600   6.426   5.226  11.477 -1.9353  1.9013  0.8883
17053SOL    HW252601   6.402   5.178  11.335  1.1963 -0.1582  0.9561
17054SOL     OW52602   0.103   6.094   6.007 -0.2490  0.3040 -0.2994
17054SOL    HW152603   0.032   6.054   6.058  0.5971  0.0415  0.7161
17054SOL    HW252604   0.150   6.148   6.071  0.9245 -0.1433 -0.7627
17055SOL     OW52605   4.765   6.022   9.414 -0.0709 -0.0844 -0.4547
17055SOL    HW152606   4.682   5.978   9.396  0.4333 -0.9857 -0.6464
17055SOL    HW252607   4.826   5.988   9.348  0.5520  0.2484 -0.0672
17056SOL     OW52608   7.830   5.285  11.063  0.1612  0.9272 -0.6010
17056SOL    HW152609   7.736   5.300  11.074  0.5293  2.0404  1.6565
17056SOL    HW252610   7.853   5.225  11.133  1.0300  0.0235 -1.6235
17057SOL     OW52611   0.139   7.507   2.110  0.0367  0.1458  0.1025
17057SOL    HW152612   0.052   7.519   2.149  0.3026  0.6212  0.5473
17057SOL    HW252613   0.154   7.412   2.115  0.2999  0.2492  1.6775
17058SOL     OW52614   3.153   7.691  10.273 -0.0436  0.0492 -0.3846
17058SOL    HW152615   3.126   7.695  10.365 -0.5121 -2.1610 -0.3674
17058SOL    HW252616   3.076   7.660  10.226  0.4581  0.2890 -1.3897
17059SOL     OW52617   0.190   5.673   8.183 -0.0112  0.1906 -0.0019
17059SOL    HW152618   0.148   5.758   8.176  0.1130  0.3176  0.7626
17059SOL    HW252619   0.280   5.688   8.153  0.6223  0.8185  2.0171
17060SOL     OW52620   3.898   7.062   3.167  0.3576  0.5143 -0.3510
17060SOL    HW152621   3.872   7.150   3.141 -1.1772  0.7618  1.7637
17060SOL    HW252622   3.823   7.007   3.144 -0.0176  0.3423  1.1477
17061SOL     OW52623   3.533   3.828   4.679 -0.6011 -0.2093 -0.1756
17061SOL    HW152624   3.483   3.793   4.605 -0.8518  0.3188 -0.2572
17061SOL    HW252625   3.539   3.755   4.741 -0.3561 -0.6681 -0.7344
17062SOL     OW52626   3.965   1.357   5.164  0.5382  0.1267 -0.7393
17062SOL    HW152627   3.900   1.354   5.093 -1.0898 -0.0714  0.7089
17062SOL    HW252628   4.045   1.387   5.121 -0.0437 -1.2081 -2.9199
17063SOL     OW52629   5.120   5.975  11.827  0.0527 -0.1294 -0.8642
17063SOL    HW152630   5.098   5.883  11.812 -0.9316  0.0722 -0.7738
17063SOL    HW252631   5.215   5.977  11.833  0.0221 -1.6048  1.9535
17064SOL     OW52632   0.768   5.905   4.115 -0.1685  0.0361 -0.4617
17064SOL    HW152633   0.743   5.990   4.080  0.1190  0.9245  1.3688
17064SOL    HW252634   0.695   5.881   4.172  0.8971  0.3229  1.0728
17065SOL     OW52635   3.403   2.350   9.760 -0.7495  0.8744 -0.0209
17065SOL    HW152636   3.458   2.416   9.719  0.8814 -1.7449 -2.4374
17065SOL    HW252637   3.339   2.325   9.693 -1.5511  0.2411  0.9423
17066SOL     OW52638   4.129   6.000   7.650  0.4271 -0.0031 -0.4217
17066SOL    HW152639   4.113   6.094   7.650  0.5724  0.0207 -0.5167
17066SOL    HW252640   4.104   5.972   7.738  0.1972  0.0928 -0.4563
17067SOL     OW52641   0.150   7.604   3.144 -0.5584 -0.1326 -0.7355
17067SOL    HW152642   0.149   7.617   3.049 -0.4616  1.3656 -0.5434
17067SOL    HW252643   0.059   7.619   3.171 -0.5783 -0.5176 -0.5794
17068SOL     OW52644   7.218   7.345   1.599 -0.7143  0.5148 -0.3813
17068SOL    HW152645   7.185   7.379   1.682  0.7844  1.2308 -0.0448
17068SOL    HW252646   7.203   7.251   1.604 -0.3138  0.5027  0.8644
17069SOL     OW52647   6.482   0.619   6.664 -0.9350  0.3179 -0.2350
17069SOL    HW152648   6.440   0.542   6.625 -0.4528 -0.4436  0.7196
17069SOL    HW252649   6.441   0.628   6.750  0.5731 -0.2264  0.5688
17070SOL     OW52650   4.573   3.092   5.702 -0.2564  0.2609 -0.1539
17070SOL    HW152651   4.664   3.103   5.727  0.9906 -2.2723 -2.9992
17070SOL    HW252652   4.541   3.021   5.759 -0.4264  0.9838  0.6735
17071SOL     OW52653   0.539   5.689   5.991 -0.1560  0.6323  0.0335
17071SOL    HW152654   0.583   5.751   5.932 -0.6283  2.3386  1.4068
17071SOL    HW252655   0.584   5.606   5.975  0.2203  1.1896 -2.1700
17072SOL     OW52656   0.244   2.614   8.913  0.2497  0.1240 -0.2881
17072SOL    HW152657   0.316   2.606   8.850 -0.1294  1.7013 -0.9725
17072SOL    HW252658   0.167   2.634   8.860 -0.0301  1.7616  0.6604
17073SOL     OW52659   5.580   3.473   6.758 -0.3714  0.0768  0.1495
17073SOL    HW152660   5.561   3.387   6.720 -0.7743  0.9217 -1.6115
17073SOL    HW252661   5.668   3.462   6.796 -0.3972 -1.0896 -0.0730
17074SOL     OW52662   1.622   6.608  11.201 -0.4513 -0.2385  0.4198
17074SOL    HW152663   1.624   6.513  11.193 -1.3638 -0.3214  1.0297
17074SOL    HW252664   1.534   6.627  11.232 -0.2338  0.8003  0.4219
17075SOL     OW52665   0.305   1.536   5.447 -0.5752  0.6482  0.2361
17075SOL    HW152666   0.390   1.556   5.485  1.5702 -1.1919 -3.1412
17075SOL    HW252667   0.245   1.597   5.490  2.4528  2.2933  2.5050
17076SOL     OW52668   5.373   7.774  11.866  0.0271  0.3837  0.3317
17076SOL    HW152669   5.298   7.715  11.880  0.7227 -0.8267 -0.8219
17076SOL    HW252670   5.413   7.781  11.953  0.0110 -1.0027  0.4864
17077SOL     OW52671   4.903   2.781   1.248  0.1731  0.1700 -0.1946
17077SOL    HW152672   4.997   2.798   1.243  0.0262  0.9570 -0.4337
17077SOL    HW252673   4.896   2.687   1.266  1.0755  0.5176  2.4914
17078SOL     OW52674   4.812   6.768   8.708  0.3317 -0.5172 -0.7030
17078SOL    HW152675   4.807   6.831   8.780  0.0243  0.5914 -1.6611
17078SOL    HW252676   4.884   6.710   8.733  0.3099 -0.0887  0.4403
17079SOL     OW52677   0.653   7.616   0.871  0.0939 -0.1979  0.7372
17079SOL    HW152678   0.650   7.597   0.964  1.1665  1.0143  1.0398
17079SOL    HW252679   0.708   7.693   0.863 -1.7537  1.0861 -0.7038
17080SOL     OW52680   3.221   6.121   9.753 -0.1900 -0.4447 -0.1162
17080SOL    HW152681   3.277   6.158   9.821 -0.3936  1.1399 -0.7666
17080SOL    HW252682   3.161   6.192   9.730 -1.0398 -1.4056 -0.9647
17081SOL     OW52683   5.914   7.710   8.649 -1.0078  0.5117  0.0060
17081SOL    HW152684   5.921   7.622   8.613 -0.7070  0.4425  0.2342
17081SOL    HW252685   5.825   7.738   8.626 -1.4242 -0.1969  0.7299
17082SOL     OW52686   5.460   1.591   2.564 -0.1237  0.3257  0.0597
17082SOL    HW152687   5.430   1.517   2.510 -1.5284  0.5518  0.4901
17082SOL    HW252688   5.509   1.550   2.635 -0.9512 -0.2162  0.3353
17083SOL     OW52689   4.921   1.475  11.750 -0.3354  0.4448 -0.2918
17083SOL    HW152690   4.908   1.507  11.661 -0.8944  0.3963 -0.2317
17083SOL    HW252691   4.875   1.391  11.752  0.7578 -0.1641 -0.3266
17084SOL     OW52692   4.367   6.387   1.636 -0.3220 -0.2449 -0.2501
17084SOL    HW152693   4.418   6.419   1.710 -0.5777  2.1639 -1.0206
17084SOL    HW252694   4.275   6.394   1.664 -0.3636 -1.1516 -0.1339
17085SOL     OW52695   6.009   5.264   0.932  0.4384  0.2227 -0.3631
17085SOL    HW152696   5.940   5.330   0.923  0.5201  0.3578 -0.0488
17085SOL    HW252697   6.066   5.300   1.000 -1.6629 -1.9789  2.8586
17086SOL     OW52698   0.028   6.662   6.200  0.0652  0.5609  0.4594
17086SOL    HW152699  -0.035   6.728   6.230  0.4374  1.4346 -0.6070
17086SOL    HW252700   0.011   6.653   6.106 -1.8825 -2.9962  0.9633
17087SOL     OW52701   3.021   1.385   8.212  0.1266 -0.1315 -0.5504
17087SOL    HW152702   3.035   1.314   8.150 -0.0695  0.7961 -1.6886
17087SOL    HW252703   3.108   1.405   8.245  0.2899 -0.3511 -0.8427
17088SOL     OW52704   4.718   4.123   3.581 -0.4159  0.4415 -0.2423
17088SOL    HW152705   4.813   4.114   3.575 -0.3307  1.0073  0.2550
17088SOL    HW252706   4.693   4.063   3.651 -0.3063  1.0688  0.3352
17089SOL     OW52707   6.069   3.278   8.593  0.0141  0.9065  0.7244
17089SOL    HW152708   5.980   3.308   8.612 -0.5702 -0.3038  0.0381
17089SOL    HW252709   6.081   3.299   8.501 -0.2728 -0.5560  0.3274
17090SOL     OW52710   5.143   4.525   4.547  0.0320 -1.3001 -0.3554
17090SOL    HW152711   5.207   4.565   4.488 -0.2037  3.0933  1.9864
17090SOL    HW252712   5.192   4.502   4.625 -0.6551 -1.2582  0.1005
17091SOL     OW52713   5.199   5.445   9.712 -0.0235  0.4271 -0.5689
17091SOL    HW152714   5.231   5.532   9.690  1.4399 -0.0798 -0.5435
17091SOL    HW252715   5.149   5.418   9.635  0.3003  0.9182 -0.9556
17092SOL     OW52716   4.454   2.121   9.675 -0.4420  0.5321  0.2529
17092SOL    HW152717   4.461   2.190   9.609  1.1180  0.7780  0.6287
17092SOL    HW252718   4.422   2.167   9.753 -0.5795  0.5895  0.1633
17093SOL     OW52719   5.991   2.354   2.280  0.2169 -0.5440 -0.5325
17093SOL    HW152720   6.017   2.436   2.238  0.5337 -0.2237  0.2701
17093SOL    HW252721   5.943   2.306   2.212 -2.4677  1.4980 -0.2280
17094SOL     OW52722   1.556   7.724  12.112  0.0088 -0.8400  0.0835
17094SOL    HW152723   1.486   7.696  12.171 -1.0966  0.5633 -0.5198
17094SOL    HW252724   1.625   7.658  12.123 -1.4871 -2.3771  0.5218
17095SOL     OW52725   3.013   5.769  11.637  0.3559  0.0350  0.4231
17095SOL    HW152726   2.967   5.713  11.700  1.1334  0.5013  1.4257
17095SOL    HW252727   3.097   5.726  11.624  0.7883  0.7399  0.8692
17096SOL     OW52728   6.822   0.948   9.537  0.3809 -0.3832 -0.3273
17096SOL    HW152729   6.899   1.004   9.544 -1.9334  2.9508  2.2768
17096SOL    HW252730   6.817   0.903   9.621  0.0499 -1.3991 -0.8797
17097SOL     OW52731   0.715   6.019   7.248  0.3321 -0.2936  0.2287
17097SOL    HW152732   0.764   6.094   7.214  1.2884 -0.4321  1.2572
17097SOL    HW252733   0.739   5.947   7.190 -0.1126  0.0312 -0.3864
17098SOL     OW52734   4.572   2.712   2.672  0.4053 -0.6129 -0.2148
17098SOL    HW152735   4.659   2.727   2.636  0.8308 -2.0689  0.1655
17098SOL    HW252736   4.585   2.707   2.766 -0.6246  2.6350  0.2354
17099SOL     OW52737   3.509   6.684  12.107 -0.0631 -0.3580 -0.1274
17099SOL    HW152738   3.424   6.661  12.144 -0.1080  1.0222  0.7050
17099SOL    HW252739   3.509   6.643  12.020 -1.0492 -1.4277  0.3525
17100SOL     OW52740   6.381   2.961   1.707 -0.0036  0.0877  0.5374
17100SOL    HW152741   6.462   2.922   1.677 -0.5471 -0.5924 -0.0839
17100SOL    HW252742   6.371   3.040   1.654  0.1222  0.0363  0.4387
17101SOL     OW52743   0.082   3.039   2.224  0.4648 -0.3069 -0.0572
17101SOL    HW152744   0.047   3.055   2.136 -3.3798 -1.0874  1.1487
17101SOL    HW252745   0.105   3.125   2.257  0.8102  0.1316 -1.3910
17102SOL     OW52746   5.962   5.236   1.349 -0.1034 -0.5474  0.1862
17102SOL    HW152747   6.033   5.288   1.387  0.4115 -0.2250 -1.1782
17102SOL    HW252748   6.004   5.157   1.316 -0.4550 -0.5877 -0.1799
17103SOL     OW52749   1.323   0.849   3.409 -0.0093  0.0360 -0.1847
17103SOL    HW152750   1.354   0.836   3.498 -0.3138  0.0130 -0.0829
17103SOL    HW252751   1.275   0.769   3.387 -0.2621  0.1991 -0.2314
17104SOL     OW52752   0.134   7.696   4.974 -0.1343 -0.1380 -0.3238
17104SOL    HW152753   0.107   7.753   5.046 -0.6889 -0.5817 -0.1731
17104SOL    HW252754   0.088   7.731   4.897  0.8030  0.6081 -0.5674
17105SOL     OW52755   2.147   5.268   9.986 -0.6389 -0.8139 -0.0352
17105SOL    HW152756   2.098   5.335  10.035  0.3596 -0.4665  0.5076
17105SOL    HW252757   2.212   5.317   9.937  0.0738 -1.3794  0.3296
17106SOL     OW52758   5.909   3.091   7.186  0.2232 -0.3394  0.2960
17106SOL    HW152759   5.865   3.049   7.260  0.0840 -1.4330 -0.3821
17106SOL    HW252760   5.840   3.139   7.141 -0.5205 -2.5804 -1.1414
17107SOL     OW52761   7.229   7.114   4.912  0.0183 -0.0939 -0.0308
17107SOL    HW152762   7.217   7.206   4.890  1.3830  0.4999  1.4885
17107SOL    HW252763   7.224   7.068   4.828 -1.2868  1.2557 -0.7512
17108SOL     OW52764   5.519   0.415  10.676 -0.2365 -0.0669  0.0563
17108SOL    HW152765   5.518   0.335  10.729  2.9631 -0.2212  0.0715
17108SOL    HW252766   5.442   0.464  10.705 -0.1207 -1.3710  2.9213
17109SOL     OW52767   4.032   4.437  10.120  0.3403  0.3195  0.8404
17109SOL    HW152768   4.033   4.352  10.163 -0.3586  0.1070  0.4512
17109SOL    HW252769   3.943   4.470  10.135 -0.0159  0.1010 -0.6930
17110SOL     OW52770   7.549   0.980  10.204 -0.0205  0.4131 -0.8155
17110SOL    HW152771   7.497   1.037  10.260  0.9520 -0.1540  0.7221
17110SOL    HW252772   7.621   1.035  10.174  1.0528 -0.0162  0.8625
17111SOL     OW52773   0.016   3.352   2.563  0.6937  0.0022 -0.6209
17111SOL    HW152774  -0.066   3.309   2.541  0.2310  0.4018  0.2593
17111SOL    HW252775   0.078   3.280   2.576  0.0810 -0.3795  0.2492
17112SOL     OW52776   1.407   2.696   9.726  0.2334  0.3477 -0.3046
17112SOL    HW152777   1.342   2.662   9.664  0.2548  2.0673 -1.3452
17112SOL    HW252778   1.486   2.708   9.673  0.3301  1.6298  0.0988
17113SOL     OW52779   1.686   1.381   9.933  0.3226  0.6046  0.2377
17113SOL    HW152780   1.721   1.430   9.858  0.0958  1.6145  0.7722
17113SOL    HW252781   1.622   1.321   9.894  0.0775  1.2423 -0.3613
17114SOL     OW52782   2.804   4.977   2.826  0.4679 -0.4382 -0.4213
17114SOL    HW152783   2.881   4.924   2.806  0.1521 -1.2133  0.3270
17114SOL    HW252784   2.787   4.959   2.919  0.5790  1.2807 -0.0385
17115SOL     OW52785   4.407   1.728   1.882 -0.1031 -0.2758  0.1466
17115SOL    HW152786   4.447   1.802   1.929  0.6539 -0.4630 -0.1865
17115SOL    HW252787   4.323   1.761   1.852  0.3077  0.5137 -0.1608
17116SOL     OW52788   5.650   1.299  10.505 -0.4733 -0.3517 -0.2011
17116SOL    HW152789   5.592   1.329  10.434 -0.2954 -1.0055 -0.6321
17116SOL    HW252790   5.680   1.380  10.547 -0.3970  0.0627 -1.0285
17117SOL     OW52791   3.387   3.343   0.809  0.2451 -0.4364 -0.0611
17117SOL    HW152792   3.462   3.341   0.869  0.4129  0.1124 -0.2510
17117SOL    HW252793   3.417   3.295   0.732  0.2314 -0.6321  0.0537
17118SOL     OW52794   4.373   1.145   9.250  0.5199  0.1913  0.2760
17118SOL    HW152795   4.326   1.216   9.206  0.4343  0.6019  1.0121
17118SOL    HW252796   4.311   1.072   9.249 -0.6897  1.1003  2.3423
17119SOL     OW52797   3.470   7.410  10.309  0.1301 -0.4253  0.6706
17119SOL    HW152798   3.485   7.505  10.299  0.5744 -0.4446  1.1169
17119SOL    HW252799   3.453   7.380  10.220  1.6017 -0.1829  0.2677
17120SOL     OW52800   4.343   5.446   5.995  0.1126  0.3602  0.4465
17120SOL    HW152801   4.430   5.484   5.980 -0.3298  1.5290  0.7097
17120SOL    HW252802   4.332   5.383   5.924  2.3876 -2.1104  2.0912
17121SOL     OW52803   6.842   0.950   1.698 -0.4525 -0.0773  0.3533
17121SOL    HW152804   6.881   0.869   1.665  0.1161  0.5785 -0.6518
17121SOL    HW252805   6.912   0.991   1.749 -0.5411  0.0592  0.3652
17122SOL     OW52806   4.986   6.453  10.226  0.2342 -0.2457 -0.0186
17122SOL    HW152807   5.000   6.522  10.291  0.2807  0.0465 -0.3311
17122SOL    HW252808   5.053   6.470  10.159 -1.3318  0.9475 -1.3547
17123SOL     OW52809   2.092   4.531   4.137  0.0198 -0.3145 -0.1161
17123SOL    HW152810   2.183   4.532   4.166 -0.3164 -0.2189  0.9849
17123SOL    HW252811   2.093   4.579   4.054  0.5911  2.0421  1.1488
17124SOL     OW52812   3.036   5.678   0.613  0.1319  0.6949  0.4843
17124SOL    HW152813   2.955   5.630   0.596  0.3983  0.5560 -0.4673
17124SOL    HW252814   3.032   5.701   0.706 -0.1743 -0.8554  0.8800
17125SOL     OW52815   0.960   2.888   7.391  0.1022 -0.1113  0.4698
17125SOL    HW152816   0.997   2.939   7.319  1.9056  0.2640  1.6071
17125SOL    HW252817   0.880   2.936   7.415 -1.1308 -0.8200 -1.8996
17126SOL     OW52818   2.758   1.739   2.874 -0.3404  0.3434 -0.0921
17126SOL    HW152819   2.748   1.645   2.885  0.4832  0.0847 -1.3500
17126SOL    HW252820   2.822   1.765   2.941 -0.5058 -0.0025  0.1987
17127SOL     OW52821   3.060   2.084   8.484  0.1226 -0.2494  0.0815
17127SOL    HW152822   2.968   2.087   8.509 -0.6137 -0.0824 -2.3477
17127SOL    HW252823   3.092   2.002   8.520 -0.9637 -0.2873  1.0106
17128SOL     OW52824   1.926   4.188   3.374 -0.0698 -0.3911  0.8348
17128SOL    HW152825   1.955   4.118   3.315 -2.8503 -0.5746 -0.4740
17128SOL    HW252826   1.926   4.148   3.461  0.7977 -1.1866  0.4897
17129SOL     OW52827   1.303   3.425   8.632  0.5144 -0.5412  0.1456
17129SOL    HW152828   1.225   3.481   8.634  0.1135 -1.1127  0.8296
17129SOL    HW252829   1.304   3.390   8.542  0.5504  0.2475 -0.1679
17130SOL     OW52830   2.923   5.382   4.750 -0.3666  0.6873 -0.5245
17130SOL    HW152831   2.992   5.322   4.721 -0.5028  0.4769 -0.4203
17130SOL    HW252832   2.956   5.469   4.729  1.0348  0.7804  1.7586
17131SOL     OW52833   5.768   3.256  11.777  0.1662 -0.8113  0.4039
17131SOL    HW152834   5.854   3.298  11.779 -0.2879  0.2542 -0.7753
17131SOL    HW252835   5.721   3.291  11.852  0.4152 -0.5924  0.4575
17132SOL     OW52836   1.150   4.253   5.741 -0.0096 -0.2921  0.2976
17132SOL    HW152837   1.222   4.230   5.682 -0.7696  1.1137 -1.2853
17132SOL    HW252838   1.181   4.228   5.828  2.8300  1.2056 -0.1568
17133SOL     OW52839   5.776   7.470   8.063  0.0463 -0.6904  0.8888
17133SOL    HW152840   5.726   7.441   7.988 -1.2801  0.9036  1.0993
17133SOL    HW252841   5.741   7.420   8.137 -0.0741 -0.7844  0.7669
17134SOL     OW52842   1.385   7.301   0.885  0.7132  0.2366 -0.0587
17134SOL    HW152843   1.447   7.271   0.818  2.9626  1.7798  1.1792
17134SOL    HW252844   1.357   7.388   0.855  2.6203  1.4438  1.4099
17135SOL     OW52845   5.128   5.300   3.937  0.6752  0.4361 -0.3603
17135SOL    HW152846   5.176   5.346   3.869  0.9228 -0.3995 -0.7669
17135SOL    HW252847   5.102   5.217   3.896  0.2526  0.2050  0.3533
17136SOL     OW52848   0.073   4.766   3.881  0.5316  0.5490  0.3821
17136SOL    HW152849   0.124   4.698   3.838 -0.4726 -0.1125  0.2127
17136SOL    HW252850  -0.016   4.756   3.846  0.4481  2.2081  0.0442
17137SOL     OW52851   1.262   0.886  11.245  0.7134  0.0209 -0.1823
17137SOL    HW152852   1.345   0.860  11.206  0.6585  0.4291 -0.5789
17137SOL    HW252853   1.200   0.820  11.215  1.0875 -0.9030  0.9771
17138SOL     OW52854   7.560   4.414   2.823  0.2420  0.1727  0.3371
17138SOL    HW152855   7.628   4.462   2.870  0.0553  0.5736  0.2010
17138SOL    HW252856   7.578   4.431   2.730 -0.5285  0.9634  0.3203
17139SOL     OW52857   7.390   7.070   7.828  0.3380  0.0440  0.4297
17139SOL    HW152858   7.362   7.143   7.773 -1.2080 -0.2531  0.7729
17139SOL    HW252859   7.481   7.090   7.850  0.5660  0.8545 -1.0939
17140SOL     OW52860   7.585   2.930  10.458  0.6174  0.4346 -0.1731
17140SOL    HW152861   7.594   3.020  10.429  2.3897  0.3858  0.0637
17140SOL    HW252862   7.551   2.937  10.548  0.0203  0.8176 -0.4251
17141SOL     OW52863   4.712   1.582   7.788  0.8951 -0.4280 -0.5321
17141SOL    HW152864   4.623   1.602   7.759  0.8630 -0.1128 -0.2136
17141SOL    HW252865   4.730   1.644   7.858  0.8262 -1.4468  0.4175
17142SOL     OW52866   3.539   7.199   5.213 -0.1685 -0.1785  0.4211
17142SOL    HW152867   3.491   7.282   5.215  2.5581  1.5205  2.2603
17142SOL    HW252868   3.494   7.144   5.277 -2.4308 -0.4761 -1.3137
17143SOL     OW52869   0.966   1.798   0.434 -0.2260 -0.1290  0.0456
17143SOL    HW152870   1.015   1.716   0.438  1.1513  0.5596 -1.4092
17143SOL    HW252871   0.907   1.788   0.359  0.9495  0.6772 -1.0286
17144SOL     OW52872   3.130   2.999   4.430 -0.4967 -0.3467  0.4268
17144SOL    HW152873   3.069   3.065   4.462  1.5827  1.4077  1.0737
17144SOL    HW252874   3.113   2.922   4.484 -3.2881 -0.5646 -0.6340
17145SOL     OW52875   0.284   5.519   6.758  0.0232  0.4687 -0.1847
17145SOL    HW152876   0.253   5.516   6.849  1.1660 -2.4623  0.2176
17145SOL    HW252877   0.366   5.568   6.763  1.2468 -1.5726  0.8487
17146SOL     OW52878   5.023   7.312   6.490  0.2399  0.1290  0.2657
17146SOL    HW152879   4.998   7.226   6.457  2.1116 -0.3360 -0.0387
17146SOL    HW252880   5.118   7.310   6.495  0.4770  2.7303 -1.2519
17147SOL     OW52881   5.426   3.455   8.716 -0.5476  0.0906  0.2368
17147SOL    HW152882   5.358   3.521   8.702 -0.7051  0.3715  2.0325
17147SOL    HW252883   5.444   3.420   8.629 -1.0332  1.9364 -0.6638
17148SOL     OW52884   1.223   4.928   3.506 -0.0782 -0.3403 -0.0980
17148SOL    HW152885   1.312   4.963   3.506  0.1927 -0.9822  0.7767
17148SOL    HW252886   1.231   4.842   3.463 -0.5057  0.1004 -1.0948
17149SOL     OW52887   1.347   4.723   4.181 -0.1409 -0.4489  0.3420
17149SOL    HW152888   1.275   4.725   4.244 -0.9152 -0.9420 -0.4991
17149SOL    HW252889   1.395   4.804   4.196 -1.9673  0.8226 -0.2964
17150SOL     OW52890   2.870   0.858   0.099  0.4846 -0.2475  0.4949
17150SOL    HW152891   2.919   0.925   0.051 -0.7835 -1.0778 -2.1990
17150SOL    HW252892   2.933   0.823   0.163  2.0500  1.5177  0.0016
17151SOL     OW52893   0.379   5.076   1.532  0.1859  0.2164 -0.3754
17151SOL    HW152894   0.317   5.049   1.600 -0.2894 -0.5883 -1.1060
17151SOL    HW252895   0.355   5.167   1.513 -0.7147 -0.0528 -0.5810
17152SOL     OW52896   3.080   3.531   0.021 -0.4026 -0.2229 -0.1089
17152SOL    HW152897   3.095   3.621  -0.008  1.4207 -0.2186  0.7100
17152SOL    HW252898   3.031   3.491  -0.050  1.2482  0.6360 -1.8121
17153SOL     OW52899   3.540   0.463   4.166 -0.9007 -0.3481  0.4356
17153SOL    HW152900   3.520   0.552   4.195 -0.6120  0.1336 -0.7821
17153SOL    HW252901   3.597   0.428   4.235  0.7278  1.1650 -0.0671
17154SOL     OW52902   6.365   3.126  10.025  0.5752  0.5246 -0.8130
17154SOL    HW152903   6.360   3.031  10.021  0.2076  0.2633  2.8983
17154SOL    HW252904   6.458   3.146  10.016  0.8171 -0.3108 -0.1997
17155SOL     OW52905   3.624   5.700   5.732 -0.5548  0.7412  0.3090
17155SOL    HW152906   3.627   5.616   5.687 -2.7283 -0.5084  2.2998
17155SOL    HW252907   3.714   5.734   5.726  0.0885 -1.1145 -1.5692
17156SOL     OW52908   1.741   7.193  10.261 -0.1673 -0.2225 -0.5807
17156SOL    HW152909   1.725   7.263  10.324 -0.2092 -0.6893 -0.0682
17156SOL    HW252910   1.835   7.198  10.244 -0.3380  0.6523 -1.3856
17157SOL     OW52911   1.553   4.522   9.531 -0.3077  0.0935  0.3265
17157SOL    HW152912   1.466   4.512   9.569  0.0327  0.0460  1.1271
17157SOL    HW252913   1.541   4.580   9.457 -1.0451 -0.0266  0.3461
17158SOL     OW52914   0.934   3.430   0.692 -0.3397  0.1020 -0.2474
17158SOL    HW152915   1.018   3.431   0.646 -0.2368 -2.1248 -0.2161
17158SOL    HW252916   0.930   3.343   0.732 -1.4522  1.1201  2.0571
17159SOL     OW52917   6.969   1.097   2.988 -0.1624  0.4743 -0.0594
17159SOL    HW152918   6.886   1.075   3.030  0.0421  1.3569  0.8507
17159SOL    HW252919   7.034   1.089   3.059  0.5631 -0.3266 -0.7810
17160SOL     OW52920   4.043   2.953   2.555  0.0718  0.8091 -0.1674
17160SOL    HW152921   3.968   3.009   2.577 -0.8966  0.0883 -1.4575
17160SOL    HW252922   4.119   3.009   2.568 -0.7505  1.9098  0.1372
17161SOL     OW52923   2.861   0.783   6.076  0.5930  0.4479 -0.3430
17161SOL    HW152924   2.870   0.745   6.163 -1.2146  1.7619  0.4828
17161SOL    HW252925   2.898   0.871   6.084 -1.2340  1.2749 -0.3048
17162SOL     OW52926   2.299   1.450   5.411 -0.0284  0.1463 -0.2018
17162SOL    HW152927   2.255   1.533   5.391 -0.7525 -0.0897  0.3415
17162SOL    HW252928   2.348   1.429   5.332 -1.8990 -0.1985 -1.3387
17163SOL     OW52929   4.820   0.024   1.601  0.0599  0.0090  0.1797
17163SOL    HW152930   4.866  -0.035   1.660 -0.3424 -1.7559 -1.1737
17163SOL    HW252931   4.854   0.003   1.514 -1.2879  0.6048 -0.5314
17164SOL     OW52932   4.980   0.668   0.897 -0.4131 -0.4524  0.4536
17164SOL    HW152933   4.941   0.591   0.938 -0.0738 -0.9955 -0.2200
17164SOL    HW252934   4.965   0.656   0.803  0.2393 -0.0343  0.2868
17165SOL     OW52935   7.355   1.204   3.121  0.0625  0.2495  0.3620
17165SOL    HW152936   7.315   1.141   3.061  0.1398  1.5104 -1.0723
17165SOL    HW252937   7.354   1.160   3.206 -0.2699 -1.5023 -0.4998
17166SOL     OW52938   3.936   7.123   7.530 -0.7076  0.0083  0.2744
17166SOL    HW152939   3.961   7.215   7.544  0.3786 -0.1424 -0.5312
17166SOL    HW252940   3.853   7.113   7.577 -1.2888  1.6345 -0.3374
17167SOL     OW52941   3.017   3.209   3.419 -0.1307 -0.3789  0.8517
17167SOL    HW152942   3.033   3.150   3.344  0.6257  0.0103  0.7018
17167SOL    HW252943   2.951   3.271   3.386  1.3899  0.8132 -0.0740
17168SOL     OW52944   0.939   2.873   1.682  0.5166  0.2411  0.4404
17168SOL    HW152945   0.971   2.884   1.772  0.5761 -0.7558  0.5551
17168SOL    HW252946   1.006   2.913   1.627  0.1208  1.5279  0.8709
17169SOL     OW52947   3.028   3.504   4.409 -0.0030  0.3661 -0.5211
17169SOL    HW152948   2.967   3.499   4.482  1.2535 -2.5345  0.4712
17169SOL    HW252949   3.090   3.573   4.434  0.1660 -0.3036  0.9852
17170SOL     OW52950   0.864   2.954  11.836 -0.4430  0.1362 -0.4012
17170SOL    HW152951   0.836   3.016  11.768  0.6413  1.6827  0.5162
17170SOL    HW252952   0.951   2.925  11.809  0.7560  2.1018  1.1410
17171SOL     OW52953   3.129   0.522   6.125 -0.4606  0.1932  0.4089
17171SOL    HW152954   3.149   0.526   6.218 -2.1270 -1.0862  0.8581
17171SOL    HW252955   3.128   0.614   6.097  0.7063  0.5563  1.4787
17172SOL     OW52956   4.960   4.597   1.718  0.4251 -0.1982 -0.4371
17172SOL    HW152957   4.910   4.519   1.697  0.0243 -0.4663  1.4372
17172SOL    HW252958   4.976   4.593   1.812  1.3764  1.4057 -0.4755
17173SOL     OW52959   3.510   5.980   9.717  0.7450 -0.1785 -0.2500
17173SOL    HW152960   3.425   5.969   9.675 -0.3771  2.8940  0.9515
17173SOL    HW252961   3.491   6.027   9.798  3.4363 -1.0623  1.0189
17174SOL     OW52962   2.847   6.666   8.731  0.0204  0.1114  0.2013
17174SOL    HW152963   2.855   6.582   8.687  0.2802 -0.0995  0.6396
17174SOL    HW252964   2.933   6.680   8.772 -0.5809 -0.3057  1.6868
17175SOL     OW52965   6.091   1.190   3.117  0.2596 -0.4709  0.5631
17175SOL    HW152966   6.179   1.216   3.143  0.6190 -0.9796 -0.1030
17175SOL    HW252967   6.091   1.199   3.021 -0.5032 -0.2109  0.5783
17176SOL     OW52968   7.734   1.489   5.775 -0.3622  0.4410  0.4001
17176SOL    HW152969   7.783   1.515   5.854  1.7127  0.5175 -0.8525
17176SOL    HW252970   7.735   1.394   5.777 -0.2833  0.4421  0.4456
17177SOL     OW52971   5.339   0.881  10.861  0.2803  0.3931  0.3889
17177SOL    HW152972   5.279   0.917  10.926 -0.1117 -1.3133  1.0258
17177SOL    HW252973   5.426   0.887  10.901  0.4158  1.8629 -0.0865
17178SOL     OW52974   6.677   2.040  11.891 -0.5911  0.1995  0.1679
17178SOL    HW152975   6.593   2.075  11.923 -0.4112  1.3046 -0.5223
17178SOL    HW252976   6.690   1.960  11.942 -0.8243  1.3514  2.1269
17179SOL     OW52977   4.021   6.914   5.898 -0.6096  0.0216 -0.2043
17179SOL    HW152978   3.970   6.844   5.941 -0.2820 -1.0003 -1.4221
17179SOL    HW252979   4.099   6.869   5.864 -0.8558  0.7892 -1.8560
17180SOL     OW52980   0.390   3.186   2.036 -0.4145  0.0998  0.4984
17180SOL    HW152981   0.445   3.255   2.001 -1.1043 -0.1424 -1.1467
17180SOL    HW252982   0.429   3.105   2.004 -1.4674 -0.0913 -0.3530
17181SOL     OW52983   3.710   1.101  11.341 -0.5149  0.3115  0.5465
17181SOL    HW152984   3.773   1.116  11.270  0.6779 -1.1540  1.2536
17181SOL    HW252985   3.724   1.175  11.401 -0.5177  0.7834 -0.0262
17182SOL     OW52986   2.254   4.295  10.960 -0.0387 -0.8092 -0.1289
17182SOL    HW152987   2.181   4.272  10.903  0.0231 -1.2114 -0.0508
17182SOL    HW252988   2.232   4.257  11.045 -0.0662 -0.3302  0.0801
17183SOL     OW52989   3.435   6.061   3.694  0.1739 -0.7254  0.2036
17183SOL    HW152990   3.464   5.972   3.716 -1.5301 -1.5598 -0.7557
17183SOL    HW252991   3.503   6.094   3.635  0.0631 -2.0052 -0.6787
17184SOL     OW52992   6.827   3.164  12.057  0.3811 -0.6618  0.0584
17184SOL    HW152993   6.921   3.178  12.046  0.3495 -0.0815  0.4765
17184SOL    HW252994   6.817   3.131  12.146  0.2093 -0.9434 -0.0633
17185SOL     OW52995   4.081   2.792   7.673 -0.5024 -0.0579 -0.1389
17185SOL    HW152996   4.058   2.718   7.617 -1.7873 -0.5967  1.0160
17185SOL    HW252997   4.060   2.870   7.622  0.7793 -0.4575 -1.3363
17186SOL     OW52998   0.226   0.800   7.275  0.1678 -0.8281 -0.1360
17186SOL    HW152999   0.298   0.801   7.338 -0.3170 -0.8893  0.4315
17186SOL    HW253000   0.147   0.800   7.329 -0.2716  0.0661 -0.7519
17187SOL     OW53001   0.561   5.246   4.645 -0.5833 -0.0229  0.1883
17187SOL    HW153002   0.565   5.341   4.637  0.1796 -0.0877 -0.2932
17187SOL    HW253003   0.587   5.229   4.736 -0.2993  0.2117  0.1555
17188SOL     OW53004   2.712   7.807   2.837  0.0049 -0.1137 -0.0262
17188SOL    HW153005   2.807   7.795   2.836  0.0168 -0.1971  0.8689
17188SOL    HW253006   2.696   7.879   2.778  0.7019  0.3269  0.3114
17189SOL     OW53007   1.795   6.996   3.383  0.1816  0.1817  0.0260
17189SOL    HW153008   1.864   7.043   3.338  0.0245  2.2813  1.8075
17189SOL    HW253009   1.838   6.919   3.419  0.5545 -0.9150 -2.5465
17190SOL     OW53010   6.809   4.084  11.030 -0.6619  0.4194  0.1081
17190SOL    HW153011   6.816   3.998  10.990 -1.9884  0.4282 -0.1771
17190SOL    HW253012   6.890   4.129  11.004 -0.2084 -0.5418 -0.1787
17191SOL     OW53013   0.657   4.747   0.490  0.3680 -0.6827  0.0386
17191SOL    HW153014   0.592   4.691   0.448  0.3356 -0.6269  0.0134
17191SOL    HW253015   0.739   4.698   0.485  0.5702 -0.2592 -0.9695
17192SOL     OW53016   5.626   7.095   1.262 -0.2456  0.0752  0.3648
17192SOL    HW153017   5.572   7.016   1.255  1.7952 -1.3274 -0.4515
17192SOL    HW253018   5.673   7.085   1.345  0.5845  0.0613 -0.1058
17193SOL     OW53019   0.927   7.296   4.167 -0.4076  0.3839  0.0651
17193SOL    HW153020   0.873   7.354   4.114  0.3214  0.1953 -0.9159
17193SOL    HW253021   0.898   7.208   4.144  0.3994  0.2759 -0.5829
17194SOL     OW53022   3.894   5.760   4.818  0.2368 -0.0845 -0.7847
17194SOL    HW153023   3.876   5.854   4.821 -1.8181 -0.4459 -0.3840
17194SOL    HW253024   3.973   5.749   4.870  1.8888  1.6642 -2.7374
17195SOL     OW53025   2.103   2.001   7.969 -0.2139 -0.0498 -0.4534
17195SOL    HW153026   2.101   1.906   7.960  0.3399 -0.0333 -0.8278
17195SOL    HW253027   2.072   2.018   8.059 -0.7609 -0.5474 -0.5433
17196SOL     OW53028   3.185   1.752   5.071 -0.2758 -0.0244  0.3094
17196SOL    HW153029   3.115   1.803   5.030  1.3112 -0.2248 -2.8837
17196SOL    HW253030   3.223   1.700   5.000  0.1055 -3.5576  2.8269
17197SOL     OW53031   1.096   5.849  10.975 -0.2704 -0.1512  0.1073
17197SOL    HW153032   1.007   5.880  10.959 -0.1943 -0.3160 -0.6586
17197SOL    HW253033   1.117   5.883  11.062 -0.5730  1.0389 -0.2671
17198SOL     OW53034   5.500   0.761  10.500  0.3816  0.5620  0.3247
17198SOL    HW153035   5.497   0.723  10.588 -0.6032 -2.6825 -0.9453
17198SOL    HW253036   5.418   0.809  10.491  0.3247  0.6080  1.0526
17199SOL     OW53037   0.381   1.679   2.884 -0.4156 -0.3723 -0.3625
17199SOL    HW153038   0.413   1.720   2.804  1.6613 -0.3619  0.4103
17199SOL    HW253039   0.339   1.751   2.932 -0.7336 -0.1531 -0.9504
17200SOL     OW53040   2.043   7.512   2.462  0.0252 -0.0121 -0.2801
17200SOL    HW153041   2.083   7.576   2.403  2.2021 -1.5371 -0.5714
17200SOL    HW253042   2.079   7.428   2.434 -1.1562 -1.1296  1.3949
17201SOL     OW53043   0.882   2.841   6.563  0.6799  0.4080  0.0937
17201SOL    HW153044   0.883   2.767   6.502  1.3704  1.1698 -0.8524
17201SOL    HW253045   0.950   2.820   6.627  0.0618 -0.3236  0.5206
17202SOL     OW53046   3.648   1.690   0.729 -0.0861 -0.2764 -0.5460
17202SOL    HW153047   3.707   1.716   0.659  0.1650  1.8926  0.3821
17202SOL    HW253048   3.699   1.626   0.780  0.2775 -0.7459 -1.4646
17203SOL     OW53049   3.722   1.627   6.888 -0.3958 -0.2217 -0.2310
17203SOL    HW153050   3.718   1.577   6.806 -0.2859 -1.8594  0.7135
17203SOL    HW253051   3.685   1.712   6.866  0.5587 -0.2571 -2.2246
17204SOL     OW53052   6.277   0.657   6.892  0.1893 -0.2304  0.3565
17204SOL    HW153053   6.193   0.625   6.859  1.8165 -1.1525 -3.3918
17204SOL    HW253054   6.300   0.597   6.963 -1.8035 -0.5272  0.8221
17205SOL     OW53055   5.573   6.469   5.380 -0.1031 -0.5462 -0.0848
17205SOL    HW153056   5.548   6.400   5.442 -2.4875  0.7822  0.5832
17205SOL    HW253057   5.527   6.446   5.299 -0.3484 -0.1455 -0.0673
17206SOL     OW53058   7.347   0.115   2.007 -0.3915  0.0562  0.3477
17206SOL    HW153059   7.378   0.143   1.921 -0.6973 -0.1538  0.1666
17206SOL    HW253060   7.330   0.197   2.055  1.2143  0.1849  0.7466
17207SOL     OW53061   5.406   5.218   7.188  0.2108 -0.2149  0.2915
17207SOL    HW153062   5.497   5.196   7.168  0.1963  0.4340 -0.5291
17207SOL    HW253063   5.402   5.221   7.283  1.4177  1.2477  0.3274
17208SOL     OW53064   0.048   3.072   0.865 -0.6111  0.4220 -0.4006
17208SOL    HW153065  -0.001   3.144   0.826 -0.7857  0.2281 -0.5390
17208SOL    HW253066  -0.016   3.025   0.918 -1.3120 -1.5433 -2.8280
17209SOL     OW53067   4.478   6.959  11.710  0.0081  0.3599 -0.0115
17209SOL    HW153068   4.528   6.907  11.647 -0.6634 -0.4403  0.0982
17209SOL    HW253069   4.518   7.046  11.706 -0.0491  0.3454 -1.5742
17210SOL     OW53070   6.090   0.333   6.062 -0.5687 -0.0812 -0.1012
17210SOL    HW153071   6.073   0.405   6.122 -0.7323  0.1107 -0.3791
17210SOL    HW253072   6.174   0.296   6.092 -1.1710 -0.6713  0.9089
17211SOL     OW53073   2.736   5.429  11.840  0.0546 -0.0559  0.2287
17211SOL    HW153074   2.667   5.366  11.861 -0.8088  0.8835  0.2955
17211SOL    HW253075   2.711   5.509  11.887  0.3425  0.7874 -0.9958
17212SOL     OW53076   7.803   5.053   6.137 -0.1097  0.4260 -0.0825
17212SOL    HW153077   7.852   5.052   6.055  1.0381  0.2200  0.5941
17212SOL    HW253078   7.781   5.146   6.150 -1.0293  0.3664 -1.0221
17213SOL     OW53079   6.334   6.683   1.344  0.0957  0.3467 -0.1368
17213SOL    HW153080   6.315   6.601   1.389  0.6750  0.0391 -0.4365
17213SOL    HW253081   6.267   6.690   1.276 -1.4730  1.3612  1.4243
17214SOL     OW53082   4.521   4.311   2.896  0.3115 -0.0538 -0.1139
17214SOL    HW153083   4.498   4.230   2.851 -1.0697  1.2785 -1.9654
17214SOL    HW253084   4.607   4.335   2.860  0.3797 -0.2996 -0.1186
17215SOL     OW53085   0.373   6.466   2.616  0.4266  0.0396 -0.4166
17215SOL    HW153086   0.316   6.409   2.564 -0.0684  1.1351 -1.0969
17215SOL    HW253087   0.438   6.406   2.653 -1.7518 -1.4448  1.3009
17216SOL     OW53088   3.316   0.482  10.865 -0.1836  0.1331  0.1361
17216SOL    HW153089   3.330   0.526  10.949  0.8816  1.0745 -0.5135
17216SOL    HW253090   3.403   0.453  10.837 -0.2115  1.4747 -1.5045
17217SOL     OW53091   5.746   1.513   8.172  0.6294  0.1208 -0.6079
17217SOL    HW153092   5.762   1.547   8.084 -0.3292 -3.4214 -2.3724
17217SOL    HW253093   5.651   1.514   8.181  0.6403 -0.7943 -0.2285
17218SOL     OW53094   6.641   1.310   2.204  0.3738 -0.0983 -1.0695
17218SOL    HW153095   6.618   1.308   2.111  1.5267 -1.3214 -1.3548
17218SOL    HW253096   6.636   1.219   2.232 -2.3205  0.4955  0.7243
17219SOL     OW53097   6.163   5.708   6.729  0.2907 -0.2768 -0.4592
17219SOL    HW153098   6.226   5.766   6.686  1.5022 -1.4039 -0.2536
17219SOL    HW253099   6.160   5.630   6.672 -1.2335 -0.0885 -0.6806
17220SOL     OW53100   3.056   7.483   9.906  0.1613  0.0645 -0.3891
17220SOL    HW153101   3.062   7.388   9.898  0.2524  0.0815 -0.5208
17220SOL    HW253102   3.144   7.514   9.889  0.3517  0.1098  0.5932
17221SOL     OW53103   7.474   4.378  10.683 -0.0110  0.3176 -0.5251
17221SOL    HW153104   7.481   4.350  10.592 -1.1217 -1.7825 -0.0308
17221SOL    HW253105   7.564   4.378  10.716  0.2975  0.0911 -1.3591
17222SOL     OW53106   2.582   6.434   3.410  0.0231 -0.7124 -0.6563
17222SOL    HW153107   2.645   6.503   3.433 -1.0530  0.0488  0.1175
17222SOL    HW253108   2.574   6.439   3.315 -2.6633  2.7479 -0.4834
17223SOL     OW53109   0.301   6.651   4.502 -0.1861  0.0275  0.2640
17223SOL    HW153110   0.377   6.686   4.456 -0.8353  2.1560  0.7030
17223SOL    HW253111   0.226   6.682   4.451 -0.8392 -2.8587 -0.7508
17224SOL     OW53112   5.874   0.386   7.038 -0.0341 -0.4891  0.2879
17224SOL    HW153113   5.788   0.357   7.070 -0.1025  0.5363  1.0915
17224SOL    HW253114   5.900   0.318   6.975  0.4870 -3.1242  3.1011
17225SOL     OW53115   7.681   3.543  12.424  0.1806 -0.0950 -0.7443
17225SOL    HW153116   7.724   3.626  12.446  0.4166 -0.3460 -0.2429
17225SOL    HW253117   7.588   3.561  12.435  0.2460  0.0360 -0.4096
17226SOL     OW53118   7.788   2.042   5.868  0.0385 -0.0708  0.2132
17226SOL    HW153119   7.719   2.075   5.811 -0.4821 -1.9359 -0.3188
17226SOL    HW253120   7.864   2.029   5.811  0.1634 -0.0154  0.3631
17227SOL     OW53121   0.187   2.778   7.107 -0.3129  0.3309 -0.4229
17227SOL    HW153122   0.220   2.732   7.184 -0.8339  0.8387  0.1121
17227SOL    HW253123   0.186   2.870   7.132 -0.0640  0.5524 -1.1939
17228SOL     OW53124   4.611   3.074   2.538  0.1947  0.0172  0.2981
17228SOL    HW153125   4.574   2.986   2.547 -0.0950  0.0403 -0.5714
17228SOL    HW253126   4.539   3.133   2.556  0.0372  0.0636 -0.4384
17229SOL     OW53127   2.654   6.718  10.780 -0.2199  0.2618  0.5502
17229SOL    HW153128   2.627   6.671  10.859 -1.8167 -0.4684 -0.3796
17229SOL    HW253129   2.608   6.802  10.784 -0.7944 -0.0265  0.1083
17230SOL     OW53130   5.043   3.678   2.504 -0.3926 -0.3338 -0.5016
17230SOL    HW153131   5.001   3.748   2.555  0.0277 -0.2018 -0.3339
17230SOL    HW253132   5.098   3.632   2.567 -0.7702 -0.9023 -0.5852
17231SOL     OW53133   2.705   4.176   4.840  0.4552  0.4788  0.7493
17231SOL    HW153134   2.633   4.140   4.892  0.7655  0.6420  1.3134
17231SOL    HW253135   2.666   4.249   4.791 -0.0668 -0.3181 -0.0371
17232SOL     OW53136   2.592   2.280  11.457  0.2198 -0.1973 -0.0826
17232SOL    HW153137   2.502   2.305  11.480  0.3834 -0.7080  1.2131
17232SOL    HW253138   2.593   2.279  11.362 -0.9985  0.3704 -0.1217
17233SOL     OW53139   0.512   1.501   4.050 -0.3458  0.0187 -0.3239
17233SOL    HW153140   0.559   1.550   4.118 -0.6419 -0.3934  0.1787
17233SOL    HW253141   0.431   1.550   4.037  0.3958  0.9902 -1.5180
17234SOL     OW53142   2.419   7.619   9.454 -0.0349 -0.4392  0.4087
17234SOL    HW153143   2.400   7.710   9.475 -3.2028 -1.2166  1.4378
17234SOL    HW253144   2.509   7.621   9.421 -0.3038  3.1695 -0.5927
17235SOL     OW53145   0.527   1.075   5.094 -0.3641  0.2118 -0.5883
17235SOL    HW153146   0.441   1.046   5.124 -1.4871  2.7532 -1.1012
17235SOL    HW253147   0.552   1.144   5.155  0.4381  0.7854 -1.5330
17236SOL     OW53148   1.053   2.449   2.543 -0.5256  0.4305  0.3621
17236SOL    HW153149   0.998   2.378   2.508  1.4800  0.2241 -2.7537
17236SOL    HW253150   1.008   2.529   2.517 -0.5889  0.2645 -0.0541
17237SOL     OW53151   3.306   6.655  12.399  0.0900  0.3562  0.1337
17237SOL    HW153152   3.281   6.717  12.468 -1.7904  0.5518 -0.6754
17237SOL    HW253153   3.298   6.569  12.439  1.7651  0.5545  0.9712
17238SOL     OW53154   5.298   4.941   8.116  0.1590 -0.6673 -0.3566
17238SOL    HW153155   5.269   5.033   8.114  0.8397 -0.3618  1.4946
17238SOL    HW253156   5.335   4.926   8.029  0.4228  0.9547 -0.5692
17239SOL     OW53157   0.534   3.563   4.779  0.7003  1.0193 -0.2168
17239SOL    HW153158   0.539   3.516   4.695  0.2423 -0.5422  0.5905
17239SOL    HW253159   0.593   3.637   4.768  0.6391  0.8625 -1.9312
17240SOL     OW53160   0.728   0.538   3.682 -0.5042  0.7044 -0.0085
17240SOL    HW153161   0.767   0.619   3.649 -0.3087  0.2312 -1.0046
17240SOL    HW253162   0.711   0.487   3.603 -0.1851 -0.4236  0.6321
17241SOL     OW53163   0.106   6.899  10.316 -0.2273  0.5809  0.3659
17241SOL    HW153164   0.161   6.821  10.318 -0.1959  0.5972  0.1259
17241SOL    HW253165   0.024   6.871  10.357  0.2760  0.8076  1.5661
17242SOL     OW53166   2.550   6.091   7.053 -0.1849 -0.1138 -0.3490
17242SOL    HW153167   2.611   6.020   7.072  0.0108 -0.2735 -1.5514
17242SOL    HW253168   2.568   6.116   6.963 -1.7748 -0.0563 -0.6826
17243SOL     OW53169   4.373   2.452  12.111  0.3418 -0.8806  0.5582
17243SOL    HW153170   4.434   2.474  12.041  0.0697 -0.3709  0.4709
17243SOL    HW253171   4.315   2.528  12.117 -1.1057 -1.8501 -0.2451
17244SOL     OW53172   5.248   0.139   4.883 -0.2413 -0.2957 -0.1673
17244SOL    HW153173   5.214   0.159   4.796  0.8048 -2.4466 -1.1464
17244SOL    HW253174   5.317   0.075   4.868 -0.4323 -1.2065  2.3075
17245SOL     OW53175   0.291   5.526   5.149  0.5657  0.3012  0.1425
17245SOL    HW153176   0.380   5.510   5.181 -0.0187  1.6989  2.7903
17245SOL    HW253177   0.300   5.602   5.091  1.0535  0.8747  0.9380
17246SOL     OW53178   4.111   5.478   3.047  0.2321  0.4287 -0.3321
17246SOL    HW153179   4.122   5.478   2.952 -0.5884 -0.0970 -0.4390
17246SOL    HW253180   4.155   5.398   3.076  1.1051  0.9493 -0.1760
17247SOL     OW53181   5.686   4.284   1.707 -0.2549  0.0983  0.1540
17247SOL    HW153182   5.722   4.327   1.784  2.4468 -0.2431 -0.8361
17247SOL    HW253183   5.692   4.190   1.726 -0.1269  0.0226 -0.2377
17248SOL     OW53184   6.475   1.812   6.126 -0.1330  0.0891  0.4825
17248SOL    HW153185   6.433   1.869   6.191  0.5475  0.5616  0.5303
17248SOL    HW253186   6.409   1.747   6.103  0.4729 -1.9723  3.8679
17249SOL     OW53187   5.828   2.479  10.179 -0.2679  0.5138 -0.6568
17249SOL    HW153188   5.736   2.500  10.160 -0.3772  1.1328  0.4866
17249SOL    HW253189   5.825   2.426  10.258  0.3352  0.0017 -0.9677
17250SOL     OW53190   7.553   2.086   7.358  0.2879 -0.5003  0.2194
17250SOL    HW153191   7.533   2.069   7.450  0.6182  1.2753  0.6469
17250SOL    HW253192   7.648   2.094   7.356  0.2684 -0.3886 -0.2588
17251SOL     OW53193   2.831   0.216   4.899 -0.2208 -0.2720  0.2650
17251SOL    HW153194   2.854   0.255   4.983  4.0153  0.6812 -1.0917
17251SOL    HW253195   2.896   0.146   4.886 -0.0898  0.2421 -2.5773
17252SOL     OW53196   4.718   6.212   7.494 -0.0987 -0.3141  0.1088
17252SOL    HW153197   4.753   6.126   7.518 -0.8503 -0.8041 -0.4893
17252SOL    HW253198   4.631   6.214   7.534 -0.3361 -0.0997 -0.4111
17253SOL     OW53199   2.761   3.274  11.442  0.0963  0.1123 -0.0615
17253SOL    HW153200   2.709   3.199  11.470 -0.5358  1.2020  1.8570
17253SOL    HW253201   2.852   3.243  11.446 -0.1875 -0.7170  0.1263
17254SOL     OW53202   2.149   2.730   8.986  0.6451  0.0771 -0.4366
17254SOL    HW153203   2.178   2.752   9.074  0.4442  2.2509 -0.8685
17254SOL    HW253204   2.065   2.776   8.976  1.2054  0.7993 -2.1421
17255SOL     OW53205   2.632   7.619   1.791 -0.1835  0.0301 -0.3660
17255SOL    HW153206   2.695   7.692   1.793 -0.2467  0.0799 -0.1550
17255SOL    HW253207   2.662   7.563   1.720  2.0762 -1.6993  1.7657
17256SOL     OW53208   7.683   6.875   1.369  0.3283 -0.3343  0.3069
17256SOL    HW153209   7.750   6.835   1.424 -0.4368 -0.3902  1.2287
17256SOL    HW253210   7.617   6.806   1.358  0.7600 -0.5358 -1.2288
17257SOL     OW53211   6.036   3.801   6.627  0.1309  0.1211  0.3818
17257SOL    HW153212   6.055   3.743   6.701  1.2771 -1.2513 -0.9299
17257SOL    HW253213   6.047   3.745   6.550 -0.2418  1.7255 -0.8712
17258SOL     OW53214   1.434   7.733   0.918 -0.3351 -0.0119 -0.0610
17258SOL    HW153215   1.478   7.817   0.905  0.2912 -0.2902  0.2289
17258SOL    HW253216   1.502   7.676   0.953 -0.6559 -0.7552 -0.6438
17259SOL     OW53217   5.107   0.224   6.257  0.0132  0.0804 -0.0454
17259SOL    HW153218   5.065   0.198   6.339  0.4868  0.4318  0.3153
17259SOL    HW253219   5.089   0.318   6.250 -0.3669 -0.0263 -0.5514
17260SOL     OW53220   3.527   2.568  10.287  0.3718  0.2839  0.5472
17260SOL    HW153221   3.526   2.515  10.208 -0.1358  1.0718  0.0106
17260SOL    HW253222   3.620   2.586  10.302  0.3860  2.2725 -1.3756
17261SOL     OW53223   0.664   0.268   8.365  0.2894  0.0538 -0.2283
17261SOL    HW153224   0.675   0.355   8.404 -0.1785  0.2754 -0.5817
17261SOL    HW253225   0.722   0.268   8.290  1.8964 -0.7040  0.9672
17262SOL     OW53226   3.099   0.411   8.238 -0.1777 -0.5562 -0.3287
17262SOL    HW153227   3.100   0.433   8.331  0.3893 -1.6653 -0.0504
17262SOL    HW253228   3.109   0.316   8.236 -0.1773 -0.5471 -1.5283
17263SOL     OW53229   4.378   0.994   6.348 -0.1629  0.4329 -0.8146
17263SOL    HW153230   4.368   0.933   6.421  2.3943  2.2503  1.2602
17263SOL    HW253231   4.385   0.938   6.270 -2.9310 -1.5797  0.2505
17264SOL     OW53232   7.541   4.594   8.471  0.1238  0.2224 -0.4689
17264SOL    HW153233   7.624   4.610   8.516  0.4514 -1.8363 -0.2524
17264SOL    HW253234   7.496   4.530   8.527 -2.1376  2.0752  0.0051
17265SOL     OW53235   3.589   4.693   9.634  0.5300  0.0445 -0.1134
17265SOL    HW153236   3.602   4.782   9.667  1.0670 -0.5075  1.2101
17265SOL    HW253237   3.669   4.674   9.585  1.4392 -0.5066  1.5083
17266SOL     OW53238   7.492   5.665   5.772  0.7413  0.3141  0.0030
17266SOL    HW153239   7.475   5.750   5.813 -0.7257 -0.0614  0.2382
17266SOL    HW253240   7.516   5.687   5.682  0.1006  0.9822 -0.0189
17267SOL     OW53241   3.168   6.481  11.954 -0.1405 -0.1714 -0.3312
17267SOL    HW153242   3.091   6.534  11.977  0.8639  1.4997 -0.6583
17267SOL    HW253243   3.132   6.409  11.902 -1.4480  0.7959 -0.8341
17268SOL     OW53244   7.477   4.879   5.888 -0.5786  0.4700  0.5006
17268SOL    HW153245   7.518   4.907   5.807  0.3771 -3.2309 -0.4907
17268SOL    HW253246   7.551   4.853   5.944 -1.3535 -0.0197  1.3119
17269SOL     OW53247   7.379   2.941   8.180 -0.0025  0.5091 -0.2926
17269SOL    HW153248   7.343   2.873   8.123 -0.6114  0.3721  0.2490
17269SOL    HW253249   7.470   2.950   8.151 -0.0715 -0.1358 -0.7436
17270SOL     OW53250   1.095   0.120   5.139  0.2334 -0.3059  0.3677
17270SOL    HW153251   1.034   0.096   5.209  0.6251  1.1363  1.2489
17270SOL    HW253252   1.069   0.208   5.112  1.7131  0.2277  0.5647
17271SOL     OW53253   4.254   1.088   4.345 -0.0557 -0.0568  0.4297
17271SOL    HW153254   4.320   1.109   4.411  0.8886 -1.5695  0.0048
17271SOL    HW253255   4.304   1.084   4.263 -1.1973  1.7544 -0.4206
17272SOL     OW53256   0.176   3.810   5.534  0.5031  0.4714 -0.1638
17272SOL    HW153257   0.099   3.760   5.507  0.1932  0.0387  1.4285
17272SOL    HW253258   0.239   3.744   5.562  1.4205  0.8298 -1.2973
17273SOL     OW53259   1.975   5.261   6.833 -0.4443 -0.3305  0.1765
17273SOL    HW153260   2.066   5.284   6.855  0.0449 -1.3513 -0.6762
17273SOL    HW253261   1.927   5.343   6.842 -0.1063 -0.3504  3.8553
17274SOL     OW53262   3.742   4.765   8.258 -0.0656  0.4206  0.3077
17274SOL    HW153263   3.717   4.779   8.350 -0.4802 -1.4927  0.5393
17274SOL    HW253264   3.835   4.742   8.262  0.3868  2.0886  0.0275
17275SOL     OW53265   1.366   4.584   0.112  0.4087  0.3146  0.5774
17275SOL    HW153266   1.368   4.496   0.150 -2.0240  0.3565  0.9494
17275SOL    HW253267   1.316   4.574   0.031  2.7349  0.8474 -1.0246
17276SOL     OW53268   1.767   3.333   1.817 -0.2856 -0.2086  0.6168
17276SOL    HW153269   1.790   3.270   1.749  0.5567 -1.3603  1.8993
17276SOL    HW253270   1.765   3.281   1.898 -0.9607  1.1544  1.5167
17277SOL     OW53271   2.255   0.849  11.907  0.7590  0.4521 -0.0575
17277SOL    HW153272   2.342   0.827  11.942  0.1198 -2.0985  0.1041
17277SOL    HW253273   2.194   0.804  11.965 -0.5888  0.6021 -1.3113
17278SOL     OW53274   1.863   0.542   7.044 -0.0092  0.1342 -0.1779
17278SOL    HW153275   1.833   0.455   7.015 -1.5470  0.6403 -0.1713
17278SOL    HW253276   1.939   0.523   7.099 -2.0517 -1.5338  2.3565
17279SOL     OW53277   6.248   0.130   8.192  0.3857 -0.3282 -0.1279
17279SOL    HW153278   6.314   0.198   8.177 -0.6847  0.7604 -0.0414
17279SOL    HW253279   6.256   0.108   8.285 -1.1332  1.7528  0.5579
17280SOL     OW53280   7.074   2.645   1.671  0.1387 -0.8912 -0.2068
17280SOL    HW153281   7.097   2.604   1.587  1.2077 -2.1055  0.6521
17280SOL    HW253282   7.064   2.738   1.649  1.0618 -1.0735 -1.5682
17281SOL     OW53283   5.771   3.514  10.631 -0.2468 -1.3062  0.1001
17281SOL    HW153284   5.844   3.522  10.569  0.1190 -0.0072  0.6766
17281SOL    HW253285   5.775   3.593  10.684 -1.5061 -1.6646  0.7775
17282SOL     OW53286   5.737   6.432  10.040 -0.4278 -0.1948 -0.4222
17282SOL    HW153287   5.706   6.423  10.130 -2.2201  1.9676 -0.7175
17282SOL    HW253288   5.717   6.348   9.999  0.2884 -1.1657  1.1185
17283SOL     OW53289   3.209   7.318   0.147  0.2556  0.5684 -0.9311
17283SOL    HW153290   3.252   7.352   0.068 -0.4722  0.1341 -1.5338
17283SOL    HW253291   3.121   7.295   0.117 -0.5565  1.8500  0.3589
17284SOL     OW53292   5.608   4.874   6.076  0.1022  0.6333  0.3859
17284SOL    HW153293   5.513   4.886   6.078 -0.2627 -1.6718 -0.2134
17284SOL    HW253294   5.631   4.884   5.983  0.2128 -0.1526  0.3199
17285SOL     OW53295   5.890   0.502  12.131 -0.5611  0.7423  0.1446
17285SOL    HW153296   5.921   0.589  12.155 -0.3332  0.8621 -0.5752
17285SOL    HW253297   5.879   0.505  12.036  0.0625 -0.2022  0.0220
17286SOL     OW53298   1.965   6.293   1.271  0.1622 -0.3794  0.0354
17286SOL    HW153299   1.946   6.309   1.178  1.0263  0.7186  0.0156
17286SOL    HW253300   1.900   6.346   1.318 -0.8711 -1.6610  0.0934
17287SOL     OW53301   4.946   4.846   0.707  0.1205  0.0405  0.4274
17287SOL    HW153302   4.918   4.771   0.758  0.8186 -0.7476 -0.3088
17287SOL    HW253303   5.040   4.832   0.694 -0.0312  0.2150 -1.0389
17288SOL     OW53304   7.622   1.911   7.835 -0.3850 -0.5705  0.1540
17288SOL    HW153305   7.714   1.923   7.857 -0.6035  1.4814  0.1752
17288SOL    HW253306   7.592   1.842   7.894  0.6056  0.3135  1.7859
17289SOL     OW53307   6.705   6.542   0.813  0.0986  0.4436  0.2153
17289SOL    HW153308   6.661   6.460   0.791  0.6168 -0.1773  1.3703
17289SOL    HW253309   6.672   6.564   0.901 -0.4181  1.7516 -0.2768
17290SOL     OW53310   1.740   3.584   6.352  0.4614 -0.5403 -0.9670
17290SOL    HW153311   1.675   3.563   6.285 -0.3727  0.2741 -0.4205
17290SOL    HW253312   1.768   3.673   6.331 -0.1472 -0.1046  0.0268
17291SOL     OW53313   0.826   5.511   9.548  0.2595  0.6459  0.2186
17291SOL    HW153314   0.877   5.572   9.496  0.0089  1.2710  0.6974
17291SOL    HW253315   0.810   5.437   9.489 -0.4394  1.5472 -0.7587
17292SOL     OW53316   5.482   3.614   0.405  0.6179  0.1520 -0.2026
17292SOL    HW153317   5.426   3.658   0.341  0.4933  1.3836  0.7185
17292SOL    HW253318   5.518   3.539   0.357 -0.9442 -0.0509 -1.1373
17293SOL     OW53319   5.797   2.542  12.361  0.3387 -0.1555  0.2979
17293SOL    HW153320   5.714   2.501  12.337 -0.2458 -0.2786  2.2968
17293SOL    HW253321   5.843   2.474  12.410  0.4787  0.7287  1.4224
17294SOL     OW53322   3.463   0.944  11.305 -0.3542  0.0180  0.0071
17294SOL    HW153323   3.468   0.903  11.219 -0.5279  0.3137 -0.1418
17294SOL    HW253324   3.554   0.965  11.326 -0.2915 -0.2112 -0.0227
17295SOL     OW53325   5.196   0.235   4.627 -0.1616 -0.1328  0.1512
17295SOL    HW153326   5.147   0.195   4.555  1.1797 -0.8206 -0.4136
17295SOL    HW253327   5.280   0.259   4.589  0.2249  0.3508  1.2657
17296SOL     OW53328   0.957   4.328   4.332 -0.2538  0.2685  0.2809
17296SOL    HW153329   0.978   4.417   4.305  0.3067 -0.1995 -0.8686
17296SOL    HW253330   0.979   4.274   4.257 -3.1112 -0.5650 -0.0831
17297SOL     OW53331   6.560   0.941   1.173  0.0991  0.2034  0.4876
17297SOL    HW153332   6.521   0.918   1.088 -0.5795  0.5478  0.7024
17297SOL    HW253333   6.606   0.862   1.200 -0.0144 -0.0395 -0.0168
17298SOL     OW53334   3.083   0.410  12.422  0.0831  0.2788  0.0808
17298SOL    HW153335   3.003   0.458  12.401  0.4179  1.0062  0.4501
17298SOL    HW253336   3.116   0.379  12.337 -0.9415 -0.6081 -0.0090
17299SOL     OW53337   0.295   5.634   6.365 -0.1033 -0.1905  0.0274
17299SOL    HW153338   0.349   5.712   6.377  0.3502 -0.3002 -1.1993
17299SOL    HW253339   0.309   5.609   6.274  0.2710 -2.0917  0.5791
17300SOL     OW53340   3.585   4.779  11.806  0.6205 -0.1208  0.1937
17300SOL    HW153341   3.559   4.828  11.728 -0.5631 -2.4039 -0.9287
17300SOL    HW253342   3.652   4.718  11.776  0.6874 -0.5332  1.1413
17301SOL     OW53343   1.237   7.744   2.840  0.7669  0.4894  0.2583
17301SOL    HW153344   1.209   7.730   2.750  2.4761 -2.2092  0.0269
17301SOL    HW253345   1.173   7.696   2.893  0.4859  1.0049  0.3910
17302SOL     OW53346   4.473   0.690   5.930  0.2562 -0.5045 -0.5279
17302SOL    HW153347   4.543   0.751   5.905  1.0015 -0.7286  0.8907
17302SOL    HW253348   4.395   0.725   5.888  0.8460  0.9155 -0.5263
17303SOL     OW53349   7.042   5.145   4.819  0.7398 -0.0330  0.2938
17303SOL    HW153350   6.999   5.223   4.783  0.6353 -0.3565 -0.2951
17303SOL    HW253351   7.021   5.147   4.913 -0.8560 -0.3705 -0.0291
17304SOL     OW53352   5.223   2.340  12.027  0.2600 -0.4824 -0.2972
17304SOL    HW153353   5.175   2.423  12.032  0.7107 -0.1259 -1.4587
17304SOL    HW253354   5.311   2.361  12.060 -0.2530 -1.0553  1.5200
17305SOL     OW53355   0.155   0.982  11.116  0.4999 -0.5795 -0.3818
17305SOL    HW153356   0.070   0.941  11.103 -0.1594  0.2263  1.1139
17305SOL    HW253357   0.218   0.911  11.104 -0.5329 -1.8071  1.0812
17306SOL     OW53358   6.365   1.305   8.087 -0.1323  0.6422 -0.8981
17306SOL    HW153359   6.456   1.310   8.057  0.7486  0.0517  1.4953
17306SOL    HW253360   6.358   1.219   8.128 -1.1352  1.5214  0.8591
17307SOL     OW53361   2.632   1.255   7.313 -0.1383 -0.2328 -0.3980
17307SOL    HW153362   2.646   1.160   7.312 -2.5978 -0.6607  0.0751
17307SOL    HW253363   2.538   1.265   7.329  0.3376  2.3118  1.3286
17308SOL     OW53364   7.328   1.449   9.464  0.1740  0.1578 -0.0385
17308SOL    HW153365   7.363   1.419   9.548  1.3984  0.8532 -0.2701
17308SOL    HW253366   7.405   1.457   9.408 -0.5419  0.3815 -1.0156
17309SOL     OW53367   6.915   3.965   9.560  0.5117  0.4282  0.4362
17309SOL    HW153368   6.835   3.943   9.608  0.1326 -1.8560 -1.0866
17309SOL    HW253369   6.985   3.922   9.609  0.6478  1.2806  1.0076
17310SOL     OW53370   7.958   4.343   7.004 -0.3679  0.1875  0.0055
17310SOL    HW153371   7.867   4.357   6.981 -0.6436  1.2121  1.5758
17310SOL    HW253372   7.979   4.413   7.066  0.6472 -1.6379  1.8509
17311SOL     OW53373   2.824   1.413   3.489 -0.1349 -0.1970 -0.0525
17311SOL    HW153374   2.898   1.473   3.472  0.1415 -0.4750  0.1610
17311SOL    HW253375   2.819   1.408   3.584  0.3966 -1.1869 -0.0646
17312SOL     OW53376   2.275   5.567   1.623  0.3706 -0.0657 -0.0563
17312SOL    HW153377   2.224   5.511   1.682 -0.4509  0.8183  0.0802
17312SOL    HW253378   2.251   5.656   1.648 -0.1021  0.3278 -1.8350
17313SOL     OW53379   0.466   7.691   3.891 -0.0072 -0.2349 -0.3968
17313SOL    HW153380   0.424   7.774   3.911 -0.0491 -0.4843  0.6104
17313SOL    HW253381   0.525   7.710   3.818 -0.9940  0.3769 -1.0678
17314SOL     OW53382   3.534   7.542   5.819 -0.0734  0.1693 -0.4479
17314SOL    HW153383   3.576   7.500   5.894  1.3103 -0.6514 -1.6332
17314SOL    HW253384   3.482   7.473   5.779 -0.7633  0.5916 -0.2951
17315SOL     OW53385   5.481   6.573  11.703  0.5920 -0.8120 -0.2708
17315SOL    HW153386   5.492   6.665  11.728 -1.7136 -0.2786 -0.9842
17315SOL    HW253387   5.475   6.526  11.786  0.1324 -0.0601  0.1342
17316SOL     OW53388   6.419   2.929   1.367 -0.5870  0.2088  0.2760
17316SOL    HW153389   6.341   2.921   1.312 -1.3737  0.5151  1.3254
17316SOL    HW253390   6.485   2.966   1.308 -0.9245 -0.9619 -0.8852
17317SOL     OW53391   3.090   2.997   3.240 -0.1501 -0.6858  0.6593
17317SOL    HW153392   3.174   3.025   3.203 -0.5772  1.7286  1.3430
17317SOL    HW253393   3.070   2.915   3.195  0.4328  0.9026 -2.8203
17318SOL     OW53394   7.541   2.979   5.448  0.5197 -0.4068 -0.3644
17318SOL    HW153395   7.559   2.886   5.458  1.4610 -0.1424  0.8050
17318SOL    HW253396   7.628   3.019   5.442  0.1058  0.2917 -2.1539
17319SOL     OW53397   0.324   5.348  11.164 -0.0321 -0.0048  0.6047
17319SOL    HW153398   0.380   5.283  11.207 -0.5998 -1.6655 -1.0491
17319SOL    HW253399   0.385   5.418  11.138  1.1861 -1.3750 -0.3963
17320SOL     OW53400   4.331   0.154   4.640  0.1178  0.7831  0.4878
17320SOL    HW153401   4.411   0.197   4.611 -0.2189  0.8950 -0.3008
17320SOL    HW253402   4.348   0.060   4.629 -0.6130  0.8674 -1.7883
17321SOL     OW53403   5.443   3.279   0.670 -0.0212  0.6109 -0.1230
17321SOL    HW153404   5.407   3.337   0.737  2.2049 -0.6059  2.3138
17321SOL    HW253405   5.530   3.316   0.651  0.3850 -0.4806 -0.4593
17322SOL     OW53406   7.078   3.567   4.033 -0.0354  0.8797 -0.5041
17322SOL    HW153407   7.086   3.476   4.061  4.5253  1.6196  1.3820
17322SOL    HW253408   6.997   3.598   4.074  0.3398 -1.2801  2.1059
17323SOL     OW53409   2.003   5.356  11.988  0.1079 -0.4424 -0.0399
17323SOL    HW153410   1.935   5.338  12.054 -0.5203 -1.2797 -0.8970
17323SOL    HW253411   2.070   5.404  12.036 -0.3095 -1.0836  1.2305
17324SOL     OW53412   0.876   2.782  12.430 -0.9325  0.1242  0.6313
17324SOL    HW153413   0.883   2.787  12.335  0.1759 -0.6836  0.6463
17324SOL    HW253414   0.791   2.741  12.446 -1.3686  0.7620  0.0159
17325SOL     OW53415   5.962   2.844   3.516 -0.2980  0.6643  0.7786
17325SOL    HW153416   5.961   2.831   3.611  3.0198 -2.1138  0.6417
17325SOL    HW253417   5.960   2.755   3.480 -0.9777  1.6338 -1.7589
17326SOL     OW53418   3.636   3.814   8.659  0.3033  0.3722 -0.1622
17326SOL    HW153419   3.579   3.793   8.585  0.6248 -2.3592  0.2438
17326SOL    HW253420   3.584   3.873   8.713 -1.3166 -0.3189 -0.8731
17327SOL     OW53421   0.491   1.591   0.544  0.0578 -0.2457 -1.0608
17327SOL    HW153422   0.535   1.521   0.495 -2.6287 -0.7932 -2.8820
17327SOL    HW253423   0.446   1.643   0.478 -3.1998 -0.6161  0.6415
17328SOL     OW53424   6.042   4.409   5.595  0.1090  0.4817 -0.1741
17328SOL    HW153425   6.078   4.366   5.518 -1.9633  0.2142 -1.0469
17328SOL    HW253426   6.119   4.437   5.645  1.4929 -0.8669 -1.4628
17329SOL     OW53427   7.620   1.791   9.031 -0.3931  0.0036  0.3434
17329SOL    HW153428   7.612   1.883   9.056  2.9696  0.1258  1.5746
17329SOL    HW253429   7.540   1.749   9.063 -2.5567  2.5947 -1.2542
17330SOL     OW53430   3.165   7.360   2.744  0.1614  0.2322  0.6717
17330SOL    HW153431   3.187   7.290   2.683 -3.3523 -1.6135  1.2646
17330SOL    HW253432   3.247   7.407   2.757  1.8516 -1.4477 -2.6663
17331SOL     OW53433   5.429   4.236  11.404 -0.3150 -0.2706  0.4293
17331SOL    HW153434   5.441   4.303  11.336 -1.1900 -0.7398 -0.2066
17331SOL    HW253435   5.455   4.154  11.362 -0.8605 -0.5665  0.6548
17332SOL     OW53436   7.275   0.232   9.630 -0.2184 -0.0261  0.5565
17332SOL    HW153437   7.257   0.195   9.716 -1.3393  0.3487  0.5024
17332SOL    HW253438   7.309   0.159   9.579  2.9782  0.2998  2.0086
17333SOL     OW53439   1.544   1.377   0.256 -0.6358  0.5716  0.0915
17333SOL    HW153440   1.593   1.322   0.195 -1.5281 -0.2054  0.0514
17333SOL    HW253441   1.522   1.455   0.206 -1.4643 -0.1092 -0.6321
17334SOL     OW53442   3.583   6.651   7.390 -0.3757  0.5498  0.0750
17334SOL    HW153443   3.576   6.725   7.450 -2.6704 -0.1287  0.7406
17334SOL    HW253444   3.562   6.688   7.304  1.1570  1.1591 -0.0777
17335SOL     OW53445   5.338   2.474   4.860 -0.1088  0.2472 -0.2987
17335SOL    HW153446   5.274   2.448   4.793 -0.8074 -1.3676  0.9403
17335SOL    HW253447   5.295   2.456   4.943  0.5798  2.6022  0.6664
17336SOL     OW53448   3.285   2.039   5.242 -0.8445  0.0280 -0.2567
17336SOL    HW153449   3.226   2.066   5.313 -1.2350 -1.3755 -0.0101
17336SOL    HW253450   3.239   1.967   5.199 -0.3913  0.5383 -1.6408
17337SOL     OW53451   4.429   3.429   7.169 -0.2887  0.0861  0.1704
17337SOL    HW153452   4.512   3.396   7.136  0.2026  0.8677  0.6051
17337SOL    HW253453   4.378   3.447   7.090  0.7467  1.6052 -0.1926
17338SOL     OW53454   2.013   2.535   1.792 -0.1352  0.6085 -0.1714
17338SOL    HW153455   2.095   2.585   1.793  0.4188 -0.2695 -0.8216
17338SOL    HW253456   2.023   2.472   1.864  1.3448 -1.9315 -2.4486
17339SOL     OW53457   3.296   3.072   7.533 -0.4782  0.5640 -0.1982
17339SOL    HW153458   3.388   3.053   7.517 -0.8154  0.2523 -1.9864
17339SOL    HW253459   3.279   3.039   7.622  1.0941  0.5671  0.1245
17340SOL     OW53460   1.265   2.370   6.597  0.2230  0.2769 -0.2225
17340SOL    HW153461   1.292   2.303   6.534  0.5857  0.7328 -0.5595
17340SOL    HW253462   1.346   2.416   6.620  0.2694 -0.5258  1.3684
17341SOL     OW53463   1.950   6.240   2.906  0.2152 -0.0602 -0.7652
17341SOL    HW153464   1.987   6.154   2.888 -1.0420 -0.7520 -0.1814
17341SOL    HW253465   1.993   6.268   2.987 -1.6756 -1.6281  0.8910
17342SOL     OW53466   2.729   2.579   6.846 -0.2054 -0.0996 -0.0797
17342SOL    HW153467   2.635   2.571   6.829 -0.3211  2.2724 -0.9845
17342SOL    HW253468   2.770   2.562   6.761 -0.0293  1.2353 -0.2923
17343SOL     OW53469   0.723   1.317   5.937  0.1257  0.5541  0.2062
17343SOL    HW153470   0.761   1.258   5.872  2.4700  0.5120  1.4813
17343SOL    HW253471   0.645   1.271   5.968  0.5658 -0.7582 -0.5390
17344SOL     OW53472   7.832   2.988  11.482 -0.2074 -0.3541 -0.3373
17344SOL    HW153473   7.843   2.943  11.398  1.0698 -1.1460  0.2097
17344SOL    HW253474   7.761   2.940  11.526 -0.0827 -0.6881 -0.4982
17345SOL     OW53475   4.356   2.169   5.582  0.1509  0.0689 -0.4678
17345SOL    HW153476   4.407   2.222   5.644 -1.3683  1.2027 -0.1023
17345SOL    HW253477   4.421   2.130   5.524  1.3969  1.9596 -0.4448
17346SOL     OW53478   4.136   0.063   4.320 -0.1442 -0.5343 -0.1662
17346SOL    HW153479   4.066   0.072   4.384 -1.2799 -0.7284 -1.3403
17346SOL    HW253480   4.128   0.141   4.265 -1.3223 -1.9004 -2.0623
17347SOL     OW53481   4.517   6.748   4.650 -0.1824  0.0844 -0.1175
17347SOL    HW153482   4.602   6.750   4.694 -0.0985  0.0955 -0.2772
17347SOL    HW253483   4.476   6.830   4.674  0.2989  0.5730 -0.9011
17348SOL     OW53484   7.787   7.726   2.091 -0.3478 -0.4677 -0.3478
17348SOL    HW153485   7.796   7.766   2.177  1.7485  0.9763 -1.1562
17348SOL    HW253486   7.724   7.781   2.045 -0.0162 -0.0916 -0.3532
17349SOL     OW53487   0.126   0.616   4.495 -0.4176  0.0101  0.4071
17349SOL    HW153488   0.197   0.675   4.520 -0.6022  0.5725 -0.3925
17349SOL    HW253489   0.165   0.528   4.501  0.2928  0.2992  0.1557
17350SOL     OW53490   2.297   2.159   1.438 -0.3287 -0.0500 -0.1917
17350SOL    HW153491   2.381   2.185   1.401  0.2997 -1.7111 -0.0172
17350SOL    HW253492   2.298   2.192   1.528 -1.0808  2.3696 -0.9966
17351SOL     OW53493   0.796   6.134   4.797  0.4425 -0.6643  0.3472
17351SOL    HW153494   0.747   6.165   4.873 -0.6318 -2.1568  0.3122
17351SOL    HW253495   0.793   6.207   4.735  2.0153  0.8919  1.9850
17352SOL     OW53496   2.084   0.077   9.252 -0.1821 -0.3218 -0.4784
17352SOL    HW153497   2.082   0.114   9.164 -0.1620 -0.3463 -0.4895
17352SOL    HW253498   2.078   0.152   9.311  2.0197 -0.1096 -0.4565
17353SOL     OW53499   1.960   3.940   2.269  0.2521  0.0978 -0.6076
17353SOL    HW153500   1.982   4.023   2.227 -2.4361  0.9303 -0.5293
17353SOL    HW253501   1.905   3.894   2.205  1.7028 -1.7164 -0.6697
17354SOL     OW53502   6.426   2.109   9.971  0.1604  0.5849  0.0717
17354SOL    HW153503   6.463   2.045  10.032 -1.2021  0.9117  1.2911
17354SOL    HW253504   6.343   2.136  10.011  0.2839  2.4872 -0.8296
17355SOL     OW53505   6.538   0.530   1.191 -0.3751 -0.3344  0.2993
17355SOL    HW153506   6.477   0.541   1.264 -0.3787 -0.5013  0.3224
17355SOL    HW253507   6.563   0.438   1.195 -0.7829 -0.4667 -0.2391
17356SOL     OW53508   7.613   6.846   9.876  0.1106 -0.0216 -0.0935
17356SOL    HW153509   7.541   6.866   9.816  0.1208  0.4235  0.0420
17356SOL    HW253510   7.635   6.930   9.917 -1.1318 -0.5947  1.9304
17357SOL     OW53511   7.301   7.222   7.628 -0.0563 -0.4038 -0.9103
17357SOL    HW153512   7.381   7.274   7.620 -0.4054 -0.0050 -1.8860
17357SOL    HW253513   7.283   7.189   7.540 -0.3913 -1.3757 -0.5007
17358SOL     OW53514   3.810   1.094   0.604 -0.7249 -0.0310 -0.0581
17358SOL    HW153515   3.889   1.148   0.608 -1.3612  0.8619  0.9821
17358SOL    HW253516   3.828   1.021   0.662 -0.8413  0.4332  0.5695
17359SOL     OW53517   2.526   5.653  10.884  0.3265  0.8270 -0.2378
17359SOL    HW153518   2.553   5.652  10.976 -0.2216  0.0164 -0.0715
17359SOL    HW253519   2.527   5.561  10.858 -0.5889  0.9427 -0.7233
17360SOL     OW53520   5.153   2.388   6.785 -0.3158 -0.1890 -0.5310
17360SOL    HW153521   5.104   2.327   6.729 -1.5464  1.4304 -1.2982
17360SOL    HW253522   5.232   2.408   6.735 -1.1805  0.8747 -1.5312
17361SOL     OW53523   1.612   6.055   1.622  0.4749 -0.2501  0.2386
17361SOL    HW153524   1.558   6.125   1.587  0.7358 -0.5939 -0.8878
17361SOL    HW253525   1.550   5.996   1.666  0.1773  0.3092  0.5787
17362SOL     OW53526   7.109   1.232   1.762  0.4857 -0.0912  0.5229
17362SOL    HW153527   7.061   1.170   1.816  3.3178  0.5901  4.3159
17362SOL    HW253528   7.195   1.192   1.750  1.1084  1.4003 -0.3005
17363SOL     OW53529   6.705   0.503   8.423 -0.1427  0.3106  0.5330
17363SOL    HW153530   6.795   0.517   8.392  0.8557 -2.5795  1.8379
17363SOL    HW253531   6.680   0.588   8.461  1.3260  1.7033 -1.3838
17364SOL     OW53532   7.957   3.044   5.000 -0.7584  0.2656 -0.1711
17364SOL    HW153533   7.994   3.119   4.954  0.9125  0.1782  0.9353
17364SOL    HW253534   7.887   3.081   5.053 -0.5543  0.9036 -0.3348
17365SOL     OW53535   3.421   5.951   9.405  0.0806 -0.5819  0.1499
17365SOL    HW153536   3.360   6.020   9.379  0.6436 -0.4390 -0.8345
17365SOL    HW253537   3.506   5.979   9.369  1.1872  0.2047  3.1136
17366SOL     OW53538   7.758   2.438  10.422  0.0711 -0.0443 -0.2314
17366SOL    HW153539   7.744   2.506  10.357 -0.7814 -1.3615 -1.5042
17366SOL    HW253540   7.850   2.447  10.447  0.3396  0.6903 -1.4084
17367SOL     OW53541   7.135   3.265   5.793 -0.5158 -0.2756  0.2613
17367SOL    HW153542   7.041   3.262   5.777 -0.3543 -1.1581 -0.6524
17367SOL    HW253543   7.164   3.346   5.751 -0.9724  0.4135  1.2457
17368SOL     OW53544   6.797   6.268   9.724 -0.4561 -0.0634  0.4413
17368SOL    HW153545   6.792   6.328   9.650 -0.8783  0.7692  1.1297
17368SOL    HW253546   6.890   6.247   9.732 -0.3311  0.3379  0.0747
17369SOL     OW53547   2.894   4.851   0.569 -0.0086 -0.7904 -0.3344
17369SOL    HW153548   2.922   4.942   0.571 -1.1544 -0.4263  0.0440
17369SOL    HW253549   2.813   4.852   0.516  1.1052 -1.9300 -2.1856
17370SOL     OW53550   1.666   7.053   6.650 -0.5570  0.0611  0.0053
17370SOL    HW153551   1.723   6.976   6.648 -1.4039 -0.5897  0.2847
17370SOL    HW253552   1.698   7.109   6.580  1.4712  0.4833  1.1805
17371SOL     OW53553   3.735   0.388   4.400  0.4940  0.9322 -0.2440
17371SOL    HW153554   3.716   0.404   4.493 -0.1474  1.5913 -0.4791
17371SOL    HW253555   3.751   0.294   4.395 -1.1302  0.5966  0.2602
17372SOL     OW53556   6.599   2.416  10.049 -0.2412  0.1226  0.8410
17372SOL    HW153557   6.681   2.382  10.013  0.4665  0.9841  1.5986
17372SOL    HW253558   6.626   2.476  10.118 -1.4806  1.3481  0.3148
17373SOL     OW53559   6.285   2.050   9.427 -0.6032 -0.0623 -0.1544
17373SOL    HW153560   6.261   1.971   9.474 -0.0335  0.0703  0.3737
17373SOL    HW253561   6.212   2.110   9.441  0.9291  1.2080  3.4249
17374SOL     OW53562   3.256   5.064   8.275 -0.5198 -0.0649 -0.2430
17374SOL    HW153563   3.263   5.158   8.293  0.4902  0.0449 -1.1633
17374SOL    HW253564   3.295   5.053   8.189  0.5935 -1.5413  0.4240
17375SOL     OW53565   1.562   5.608   6.008 -0.4939  0.2747  0.2727
17375SOL    HW153566   1.512   5.527   6.016  0.7578 -0.5505  0.0698
17375SOL    HW253567   1.515   5.671   6.061 -1.8449 -0.4097 -0.0744
17376SOL     OW53568   4.856   7.867   4.901  0.5818 -0.3287  0.1516
17376SOL    HW153569   4.872   7.912   4.818  0.3906 -0.5751 -0.0196
17376SOL    HW253570   4.898   7.782   4.890  1.5434  0.0523  0.7257
17377SOL     OW53571   5.619   6.725   2.035 -0.0646  0.6900 -0.4742
17377SOL    HW153572   5.583   6.807   2.002 -2.5454 -0.0232  0.2457
17377SOL    HW253573   5.544   6.665   2.037  1.7755 -1.8309 -1.6027
17378SOL     OW53574   2.868   7.198   6.817  0.3452 -0.1007  0.1131
17378SOL    HW153575   2.848   7.285   6.851 -0.3086 -0.3236  0.3152
17378SOL    HW253576   2.962   7.200   6.800 -0.0604  1.4952 -2.3761
17379SOL     OW53577   3.581   3.893   9.040 -0.3213  0.0266  0.3170
17379SOL    HW153578   3.640   3.821   9.062  0.3581  0.5427  0.2423
17379SOL    HW253579   3.584   3.951   9.117 -0.9172 -0.0551  0.4073
17380SOL     OW53580   4.425   4.129   8.493 -0.0090  0.2581 -0.1778
17380SOL    HW153581   4.487   4.156   8.560 -1.2700  0.5429  0.9180
17380SOL    HW253582   4.431   4.197   8.426  0.2293  0.7587  0.3394
17381SOL     OW53583   5.712   2.723   5.988 -0.1844  0.0521 -0.3339
17381SOL    HW153584   5.766   2.651   6.022  0.7186  0.8679  0.0132
17381SOL    HW253585   5.624   2.704   6.021  0.3581 -0.0338  1.1564
17382SOL     OW53586   4.570   2.993   7.381  0.7398 -0.2871  0.3069
17382SOL    HW153587   4.607   2.959   7.299  0.0382 -0.5853  0.1140
17382SOL    HW253588   4.640   3.048   7.416  1.1370 -0.3334 -0.3775
17383SOL     OW53589   1.980   1.102  10.261  0.2834  0.1244  0.1712
17383SOL    HW153590   2.002   1.195  10.257 -0.2823  0.3848  2.0676
17383SOL    HW253591   1.913   1.096  10.329 -0.5585 -1.5370 -0.7282
17384SOL     OW53592   6.641   6.282   0.067  0.0009  0.1967 -0.3412
17384SOL    HW153593   6.631   6.220  -0.006  1.1517  0.4354 -0.7201
17384SOL    HW253594   6.648   6.226   0.145  2.1154 -0.2525 -0.7889
17385SOL     OW53595   6.232   5.170  11.043 -0.1755 -0.1517  0.6233
17385SOL    HW153596   6.260   5.240  10.984  2.7961  0.4370  2.5119
17385SOL    HW253597   6.278   5.093  11.011  0.4918 -0.0963  1.4199
17386SOL     OW53598   7.879   6.274   7.322  0.3587  0.4640  0.3180
17386SOL    HW153599   7.932   6.257   7.244 -0.9940 -1.2347 -0.2983
17386SOL    HW253600   7.919   6.222   7.391  1.4707  1.8578  0.7911
17387SOL     OW53601   6.188   1.441   0.350  0.5815 -0.0264  0.0268
17387SOL    HW153602   6.192   1.374   0.282  2.7138 -0.2588  0.3301
17387SOL    HW253603   6.096   1.440   0.378 -0.1554 -0.5575 -2.1768
17388SOL     OW53604   0.047   5.647   2.816 -0.7009 -0.5532  0.0249
17388SOL    HW153605   0.127   5.621   2.770  0.3873  0.1705  1.4363
17388SOL    HW253606  -0.020   5.650   2.748  0.8782  0.6785 -1.5676
17389SOL     OW53607   2.869   1.713   1.754  0.0390  0.4690 -0.3544
17389SOL    HW153608   2.944   1.672   1.711  0.8359  1.7756 -0.2610
17389SOL    HW253609   2.793   1.684   1.703  0.7248  0.0864 -1.1740
17390SOL     OW53610   1.351   0.594   9.262 -0.1465 -0.1729 -0.0248
17390SOL    HW153611   1.285   0.635   9.318 -1.1934  0.1201 -1.3996
17390SOL    HW253612   1.315   0.602   9.174  1.5780 -0.3380 -0.7857
17391SOL     OW53613   0.050   2.769   6.111 -0.0643 -0.2411  0.0941
17391SOL    HW153614   0.035   2.760   6.017  1.0662 -1.0718 -0.0237
17391SOL    HW253615   0.022   2.685   6.148 -0.5104  0.0819  0.5154
17392SOL     OW53616   3.018   6.002   6.591  0.6586 -0.4852  0.1308
17392SOL    HW153617   2.969   6.083   6.578 -2.1301 -1.6574  2.3312
17392SOL    HW253618   3.100   6.031   6.633  0.4222  1.2729 -0.5404
17393SOL     OW53619   7.242   6.728   0.912 -0.0756  0.7068  0.3695
17393SOL    HW153620   7.158   6.746   0.954 -0.5481 -0.2260 -0.1452
17393SOL    HW253621   7.222   6.723   0.819  0.8244  1.9662  0.0823
17394SOL     OW53622   1.633   2.854  11.563  0.2296 -0.3174 -0.0920
17394SOL    HW153623   1.652   2.886  11.474  0.1144  0.1685  0.0545
17394SOL    HW253624   1.686   2.910  11.619  0.7081 -0.9685  0.1142
17395SOL     OW53625   3.550   6.353   3.363  0.6332 -0.2788  0.3058
17395SOL    HW153626   3.508   6.366   3.448  0.6927 -0.0701  0.3058
17395SOL    HW253627   3.496   6.404   3.302  0.1008 -1.1080  0.0707
17396SOL     OW53628   4.613   5.535  11.069  0.7581 -0.4160  0.9241
17396SOL    HW153629   4.553   5.460  11.062  0.0174  0.0473  2.1426
17396SOL    HW253630   4.601   5.582  10.987  1.3599 -1.6971  0.0557
17397SOL     OW53631   4.861   5.008  11.612 -0.2489 -0.0845  0.4153
17397SOL    HW153632   4.836   5.075  11.676 -0.9829 -1.3629  1.5323
17397SOL    HW253633   4.786   5.000  11.554 -1.4783 -1.9670  2.0972
17398SOL     OW53634   4.217   0.680  10.102  0.2147 -0.1355 -0.0345
17398SOL    HW153635   4.191   0.621  10.032 -1.0424 -0.5540  0.7634
17398SOL    HW253636   4.135   0.710  10.140  0.8634  0.9771  0.5314
17399SOL     OW53637   5.045   7.721   3.029 -0.1359  0.4437 -0.4149
17399SOL    HW153638   4.982   7.671   2.979 -0.1216 -1.3592  1.2626
17399SOL    HW253639   5.130   7.685   3.004 -0.1754 -1.0510  1.4070
17400SOL     OW53640   5.784   7.703   6.643  0.4401 -0.3015 -0.0684
17400SOL    HW153641   5.716   7.662   6.696  0.0597  1.4292  0.8845
17400SOL    HW253642   5.866   7.673   6.681  0.1783 -0.4382  0.3922
17401SOL     OW53643   7.232   6.289   0.515  0.0048 -0.6011 -0.0180
17401SOL    HW153644   7.243   6.194   0.515 -2.6775 -1.0050  0.9360
17401SOL    HW253645   7.245   6.314   0.423  0.6852 -1.8767 -0.3036
17402SOL     OW53646   0.658   7.614   6.345  0.0086  0.0764 -0.1367
17402SOL    HW153647   0.664   7.580   6.435 -2.1026  0.4541  0.2081
17402SOL    HW253648   0.579   7.668   6.345 -0.0665  0.0530 -2.2449
17403SOL     OW53649   0.145   7.086   0.707 -0.3808 -0.2605 -0.1839
17403SOL    HW153650   0.195   7.165   0.687  0.8377 -1.2275 -1.0796
17403SOL    HW253651   0.054   7.112   0.695 -0.0898  1.2927  0.5971
17404SOL     OW53652   2.621   5.188   1.126 -0.6693  0.0050 -0.1288
17404SOL    HW153653   2.583   5.275   1.137 -0.8999 -0.0800 -0.2518
17404SOL    HW253654   2.715   5.201   1.137 -0.8236  0.0303  1.3619
17405SOL     OW53655   7.850   0.600   1.848  0.1032  0.3453 -0.1090
17405SOL    HW153656   7.907   0.536   1.892 -0.6730  0.5000  1.1593
17405SOL    HW253657   7.802   0.642   1.919 -0.7582  1.0319 -1.0770
17406SOL     OW53658   1.380   4.136   7.198  0.0535  0.0259 -0.1022
17406SOL    HW153659   1.409   4.112   7.286  2.9748  1.7212 -0.4881
17406SOL    HW253660   1.459   4.129   7.144 -1.7498 -1.5201 -2.8050
17407SOL     OW53661   6.766   7.339   3.250 -0.1523 -0.3393  0.2194
17407SOL    HW153662   6.812   7.319   3.169  0.1921  0.5375  0.1923
17407SOL    HW253663   6.802   7.423   3.278 -1.5010  0.2077  0.3732
17408SOL     OW53664   0.288   4.558   4.672  0.3828  0.5527  0.1038
17408SOL    HW153665   0.347   4.621   4.631 -0.7332  0.9495 -0.9417
17408SOL    HW253666   0.207   4.563   4.621 -0.7924  0.4748  1.8729
17409SOL     OW53667   4.189   0.581   0.254  0.1487  0.1940 -0.1059
17409SOL    HW153668   4.113   0.536   0.293 -0.2570  0.4405 -0.5970
17409SOL    HW253669   4.160   0.603   0.165  0.1971  1.7583  0.2430
17410SOL     OW53670   1.102   7.860   7.471  0.1591  0.2894 -0.4766
17410SOL    HW153671   1.088   7.827   7.560 -0.7078 -1.2404 -1.1439
17410SOL    HW253672   1.194   7.886   7.470  1.2726 -3.0764 -0.0988
17411SOL     OW53673   2.848   3.108   6.474 -0.6470 -0.2836  0.8217
17411SOL    HW153674   2.938   3.091   6.448 -0.6364  1.5751 -0.5546
17411SOL    HW253675   2.811   3.022   6.492  0.4432 -1.4248 -1.9234
17412SOL     OW53676   7.098   7.482   1.792  0.1627  0.1342  0.1235
17412SOL    HW153677   7.049   7.452   1.868 -1.1858  1.4726 -0.1859
17412SOL    HW253678   7.060   7.567   1.770  1.2199  0.2532 -1.4176
17413SOL     OW53679   4.407   4.025   0.152  0.7286  0.2384 -0.4701
17413SOL    HW153680   4.468   4.016   0.226  2.7263 -3.1949 -2.2505
17413SOL    HW253681   4.454   4.080   0.090  0.1520  1.0419 -0.1991
17414SOL     OW53682   3.695   6.654   3.080 -0.0026  0.0558 -0.0555
17414SOL    HW153683   3.638   6.646   3.004  2.2810 -1.1814 -1.7727
17414SOL    HW253684   3.657   6.724   3.132 -1.7908  0.8028 -2.2178
17415SOL     OW53685   7.876   1.454   4.521 -0.2872  0.7825  0.1857
17415SOL    HW153686   7.834   1.392   4.581 -1.5890 -0.4848 -1.8860
17415SOL    HW253687   7.958   1.411   4.496 -1.5085 -0.5739 -1.7895
17416SOL     OW53688   2.276   3.180  10.888  0.2832  0.5190  0.1648
17416SOL    HW153689   2.211   3.234  10.935  0.0586 -0.5638  1.1332
17416SOL    HW253690   2.356   3.233  10.889  0.4562  0.3035  2.3185
17417SOL     OW53691   5.187   4.647   3.787  0.1624 -0.5950  0.3743
17417SOL    HW153692   5.155   4.659   3.698  1.6309  1.5457  0.0558
17417SOL    HW253693   5.128   4.701   3.841 -0.1173 -1.0937  0.5763
17418SOL     OW53694   5.959   7.380   9.528 -0.5809 -0.0034 -0.1014
17418SOL    HW153695   6.013   7.345   9.457 -0.3802 -0.1984  0.1427
17418SOL    HW253696   5.907   7.305   9.557  0.5887 -0.3908  1.1088
17419SOL     OW53697   6.758   7.202  10.533 -0.0980 -0.1211 -0.2717
17419SOL    HW153698   6.813   7.161  10.466 -0.2178 -0.1033 -0.3803
17419SOL    HW253699   6.762   7.295  10.513  0.7499 -0.0010  0.4020
17420SOL     OW53700   4.317   1.382  10.045  0.5839  0.4576  0.0616
17420SOL    HW153701   4.357   1.464  10.076  2.2981  0.0560 -0.9390
17420SOL    HW253702   4.292   1.401   9.954 -0.0691  0.2043  0.1834
17421SOL     OW53703   1.161   5.930   3.765 -0.1932  0.4888 -0.3074
17421SOL    HW153704   1.162   5.880   3.846  0.4422 -0.5482 -0.9353
17421SOL    HW253705   1.238   5.987   3.770  0.7304 -0.6761 -0.8318
17422SOL     OW53706   5.298   6.606  10.474 -0.2592 -0.1834 -0.4118
17422SOL    HW153707   5.317   6.639  10.386  1.4332  0.1626  0.0597
17422SOL    HW253708   5.356   6.530  10.484  0.3922  0.4498  0.8021
17423SOL     OW53709   0.787   3.221   9.008  0.1292 -0.5481  0.0208
17423SOL    HW153710   0.700   3.243   8.976 -0.5726  1.9032  3.1554
17423SOL    HW253711   0.773   3.145   9.065 -0.1030  0.2181  1.0033
17424SOL     OW53712   0.922   7.946  10.505  0.1932 -0.6561  0.2093
17424SOL    HW153713   0.994   7.883  10.510  0.6130 -0.0985  1.6310
17424SOL    HW253714   0.857   7.912  10.567 -0.5522 -0.8576 -0.6571
17425SOL     OW53715   2.098   4.435  12.300  0.1026 -0.0899 -0.0059
17425SOL    HW153716   2.088   4.528  12.281 -3.0547 -0.3617 -0.1954
17425SOL    HW253717   2.103   4.393  12.214  1.1643 -0.1537  0.0757
17426SOL     OW53718   4.295   5.455   8.219 -0.4071 -0.5202  0.3278
17426SOL    HW153719   4.306   5.550   8.213 -1.8372 -0.3134  0.4347
17426SOL    HW253720   4.292   5.426   8.128  2.1668 -0.7927  0.2727
17427SOL     OW53721   2.579   0.924   6.411  0.1013 -0.2260 -0.1261
17427SOL    HW153722   2.515   0.911   6.340  1.3640  0.6365 -1.4632
17427SOL    HW253723   2.567   1.015   6.438 -0.8111 -0.7256  1.2543
17428SOL     OW53724   0.179   1.163   7.387 -0.6046 -0.1335 -0.5568
17428SOL    HW153725   0.208   1.251   7.362 -1.9780  0.7493  0.7676
17428SOL    HW253726   0.188   1.111   7.307  1.9188  0.7168 -0.9293
17429SOL     OW53727   2.086   6.890   9.939  0.1775 -0.0965  0.1130
17429SOL    HW153728   2.056   6.958   9.879 -1.6689 -0.5645  0.4678
17429SOL    HW253729   2.178   6.912   9.956  0.3763  0.7427 -1.8793
17430SOL     OW53730   3.778   7.431   3.342  1.0084  0.2165 -0.0055
17430SOL    HW153731   3.781   7.351   3.290 -0.9089 -1.0574  1.6659
17430SOL    HW253732   3.696   7.473   3.316  1.3027  0.8860  0.1414
17431SOL     OW53733   7.752   4.640   8.681  0.3331  0.3020 -0.7834
17431SOL    HW153734   7.816   4.708   8.701 -0.1550  0.7486 -0.7246
17431SOL    HW253735   7.683   4.652   8.746 -0.3917  0.6054 -1.5871
17432SOL     OW53736   3.262   4.762   6.845  0.2835 -0.5426 -0.0968
17432SOL    HW153737   3.296   4.695   6.785  1.0703  0.0471 -0.3251
17432SOL    HW253738   3.289   4.731   6.932 -2.3412 -2.2989  0.2009
17433SOL     OW53739   3.152   2.580  10.197 -0.1182 -0.0200  0.7152
17433SOL    HW153740   3.198   2.548  10.119 -0.9317 -1.0492  0.6470
17433SOL    HW253741   3.211   2.559  10.270 -0.3306 -1.0431  0.5971
17434SOL     OW53742   3.173   4.368   0.831 -0.6685 -0.5034 -1.0459
17434SOL    HW153743   3.261   4.395   0.808 -0.7777  0.1878 -0.6871
17434SOL    HW253744   3.160   4.403   0.919 -1.3889 -0.3843 -1.1942
17435SOL     OW53745   4.731   7.888   7.810 -0.3324  0.5043  0.1659
17435SOL    HW153746   4.798   7.859   7.871 -1.9415 -1.1099  1.2956
17435SOL    HW253747   4.779   7.919   7.733  1.6712 -0.3555  1.0098
17436SOL     OW53748   0.966   5.435   6.216 -0.6884 -0.7907 -0.1673
17436SOL    HW153749   1.041   5.486   6.248 -1.6392  0.0741  0.7686
17436SOL    HW253750   0.928   5.490   6.148 -0.5144 -1.2082 -0.6075
17437SOL     OW53751   1.076   3.001   4.313  0.6214 -0.0340 -0.6016
17437SOL    HW153752   1.085   2.915   4.272  1.4937 -0.9532  1.3846
17437SOL    HW253753   1.095   3.063   4.243 -1.3392 -1.3581 -2.4412
17438SOL     OW53754   5.332   0.759   2.838  0.7550  0.3115  0.2068
17438SOL    HW153755   5.333   0.807   2.755 -1.2479  1.1249  0.6070
17438SOL    HW253756   5.304   0.824   2.903 -0.3048 -0.9601  1.0677
17439SOL     OW53757   5.001   4.418  10.217 -0.0584 -0.4342 -0.0997
17439SOL    HW153758   5.082   4.392  10.173 -0.0203  0.1503 -0.3847
17439SOL    HW253759   5.014   4.392  10.308 -0.2574 -1.9222 -0.4733
17440SOL     OW53760   6.507   6.329   3.467 -0.3340 -0.2103 -0.0283
17440SOL    HW153761   6.587   6.326   3.518 -0.9216  0.0681  0.9391
17440SOL    HW253762   6.517   6.407   3.412 -0.1720  0.1544  0.5022
17441SOL     OW53763   5.842   0.986   6.072 -0.3354 -0.2427  0.1753
17441SOL    HW153764   5.832   1.054   6.139  2.0165 -0.0440  0.3991
17441SOL    HW253765   5.798   1.022   5.995 -3.0563 -0.4421  1.4762
17442SOL     OW53766   6.976   0.336   6.504 -0.5252 -0.3953 -0.2000
17442SOL    HW153767   7.012   0.290   6.580 -1.7135  0.2129  0.7600
17442SOL    HW253768   7.039   0.407   6.488  0.4905 -1.3933 -0.7126
17443SOL     OW53769   2.096   2.832   6.627 -0.6353 -0.6741  0.3308
17443SOL    HW153770   2.016   2.804   6.672 -1.3176  0.5314 -0.0730
17443SOL    HW253771   2.100   2.777   6.548 -1.5795 -0.1344 -0.1108
17444SOL     OW53772   3.395   2.851  11.321  0.0780 -0.1369  0.0681
17444SOL    HW153773   3.344   2.881  11.396  0.5031  0.9996 -0.0735
17444SOL    HW253774   3.471   2.807  11.359 -0.3878 -0.7669  0.2849
17445SOL     OW53775   5.210   1.859   9.496  0.0112  0.3958  0.0618
17445SOL    HW153776   5.151   1.908   9.438  1.1251 -0.7240 -2.1465
17445SOL    HW253777   5.295   1.901   9.483  0.8037 -1.4954 -1.1993
17446SOL     OW53778   0.751   1.793   1.844 -0.1932  0.1408 -0.1507
17446SOL    HW153779   0.805   1.871   1.837 -0.9544  0.5512 -1.6858
17446SOL    HW253780   0.715   1.798   1.933  2.2911 -0.2048  0.9809
17447SOL     OW53781   0.072   6.539   2.504 -0.6044 -0.0942  0.2340
17447SOL    HW153782   0.024   6.518   2.424  1.6908  1.8878 -1.8436
17447SOL    HW253783   0.154   6.490   2.495  1.0567  2.5871 -0.3549
17448SOL     OW53784   0.334   5.561   0.180  0.0443 -0.1302 -0.0541
17448SOL    HW153785   0.390   5.600   0.112  0.3132 -0.2326  0.1074
17448SOL    HW253786   0.310   5.475   0.145 -0.2951  0.0509 -0.2739
17449SOL     OW53787   5.887   2.067   8.031  0.0811 -0.6823 -0.0701
17449SOL    HW153788   5.839   2.136   7.985  0.8543  1.0188  1.5127
17449SOL    HW253789   5.936   2.114   8.099  0.3240 -2.8553  1.3525
17450SOL     OW53790   5.946   1.716  10.606  0.3052 -0.1604  0.2582
17450SOL    HW153791   5.948   1.810  10.588  0.1538 -0.3299 -0.6867
17450SOL    HW253792   6.019   1.680  10.556  1.8156 -0.2767  2.4135
17451SOL     OW53793   2.612   2.063   1.907  0.2368 -0.1737  0.0131
17451SOL    HW153794   2.666   2.139   1.884 -0.7829  0.9324  1.1268
17451SOL    HW253795   2.673   1.989   1.906  1.5094  0.8450  0.0208
17452SOL     OW53796   7.862   0.037   5.563 -0.3695 -0.2204  0.4932
17452SOL    HW153797   7.937   0.001   5.515 -0.6750 -1.1329  0.6694
17452SOL    HW253798   7.899   0.069   5.645 -0.1542 -0.5849  0.5405
17453SOL     OW53799   1.731   1.697   0.441 -0.5480 -0.7527 -0.5525
17453SOL    HW153800   1.742   1.791   0.426 -0.0493 -1.0478 -2.2843
17453SOL    HW253801   1.649   1.690   0.489 -0.2479  0.6099  0.1996
17454SOL     OW53802   4.966   7.395   2.086 -0.0653  0.2002 -0.2892
17454SOL    HW153803   4.952   7.455   2.013 -2.0905 -0.2897 -0.3626
17454SOL    HW253804   4.936   7.443   2.163 -0.8638 -0.3562 -0.2313
17455SOL     OW53805   4.274   1.749  11.076 -0.0434  0.4482  0.0094
17455SOL    HW153806   4.197   1.765  11.131 -0.9119 -0.5969 -0.8375
17455SOL    HW253807   4.241   1.691  11.007  1.3329  0.6230 -0.8200
17456SOL     OW53808   3.815   0.124   0.685  0.4897  0.3451  0.0004
17456SOL    HW153809   3.816   0.209   0.642  0.7450 -0.2792 -1.2839
17456SOL    HW253810   3.745   0.076   0.641  1.4344 -0.6633 -0.4734
17457SOL     OW53811   2.441   3.592   2.705 -0.1465  0.1146  0.0376
17457SOL    HW153812   2.370   3.584   2.641 -0.2403  0.1551  0.1367
17457SOL    HW253813   2.397   3.594   2.790  0.1220 -2.8881  0.3355
17458SOL     OW53814   1.467   3.557   3.125 -0.1666 -0.0503  0.4107
17458SOL    HW153815   1.432   3.645   3.138 -0.4464 -0.3405  1.7523
17458SOL    HW253816   1.562   3.569   3.131 -0.2012  0.1810  0.5279
17459SOL     OW53817   0.852   6.506   8.729  0.2472  0.1889 -0.1810
17459SOL    HW153818   0.795   6.479   8.801  1.8380  0.6384  1.2928
17459SOL    HW253819   0.821   6.455   8.654 -2.5054  0.8692  0.3607
17460SOL     OW53820   3.923   0.650   6.411 -0.8432 -1.0285 -0.1012
17460SOL    HW153821   3.928   0.716   6.480  0.0966 -0.2148 -0.8995
17460SOL    HW253822   4.012   0.645   6.376 -1.6587  0.1875 -2.6394
17461SOL     OW53823   6.563   4.888   7.466 -0.4147 -0.2767  0.4260
17461SOL    HW153824   6.583   4.908   7.558  0.4659 -0.7587  0.3551
17461SOL    HW253825   6.550   4.793   7.465 -1.4019 -0.1499  0.2127
17462SOL     OW53826   3.128   5.723   8.908  0.7956 -0.4905  0.1798
17462SOL    HW153827   3.119   5.695   8.999  0.1905 -1.5956 -0.2094
17462SOL    HW253828   3.059   5.677   8.861  2.9600 -2.3921 -1.3820
17463SOL     OW53829   4.590   3.640   5.696  0.4886 -0.7447  0.7971
17463SOL    HW153830   4.509   3.658   5.745  0.8383  1.1037  0.7742
17463SOL    HW253831   4.562   3.582   5.625 -0.8638 -0.0457  0.7152
17464SOL     OW53832   0.211   3.126   9.356  0.6340  0.1343 -0.1428
17464SOL    HW153833   0.245   3.100   9.442  0.3195 -0.8738 -0.3151
17464SOL    HW253834   0.135   3.180   9.377  0.7280  0.1345  0.2161
17465SOL     OW53835   5.678   6.780   2.675  0.3194  0.7384  0.1347
17465SOL    HW153836   5.621   6.824   2.612  2.6896  1.9175 -1.3313
17465SOL    HW253837   5.684   6.690   2.643 -0.5632  0.6444  0.2164
17466SOL     OW53838   5.494   1.120   5.403  0.4882 -0.8027  0.2553
17466SOL    HW153839   5.462   1.102   5.315 -0.5771 -1.2439  0.7206
17466SOL    HW253840   5.417   1.152   5.451  1.2075  0.0899  0.8399
17467SOL     OW53841   3.655   4.049  10.162 -1.0487  0.1652 -0.3786
17467SOL    HW153842   3.650   4.015  10.252 -2.8922 -0.7493 -0.7777
17467SOL    HW253843   3.643   4.143  10.172 -0.0053  0.2417  0.4125
17468SOL     OW53844   0.429   5.755   5.652  0.3869 -0.5463  0.2726
17468SOL    HW153845   0.506   5.795   5.693  0.0321  0.0073  0.4107
17468SOL    HW253846   0.361   5.757   5.719 -0.0530 -0.0892 -0.1683
17469SOL     OW53847   4.416   2.800   1.965  0.8846 -0.4205  0.4307
17469SOL    HW153848   4.453   2.712   1.969  0.2417 -0.7579 -0.7578
17469SOL    HW253849   4.420   2.824   1.873 -0.2355  0.2327  0.5330
17470SOL     OW53850   6.805   1.606   8.309 -0.7125 -0.0960 -0.1614
17470SOL    HW153851   6.745   1.541   8.346 -0.8428  0.4383  0.5905
17470SOL    HW253852   6.875   1.612   8.373 -0.6245  0.3972 -0.3023
17471SOL     OW53853   1.162   2.062   0.236 -0.5069 -0.3081 -0.5096
17471SOL    HW153854   1.250   2.094   0.214 -1.2494  1.7727 -0.6973
17471SOL    HW253855   1.158   2.067   0.331 -0.2973 -0.7817 -0.4739
17472SOL     OW53856   0.923   4.125  11.800  0.0175 -0.7519 -0.4753
17472SOL    HW153857   0.837   4.118  11.758 -0.8651 -1.2622  1.2966
17472SOL    HW253858   0.909   4.093  11.889  2.1270 -1.1091 -0.2105
17473SOL     OW53859   2.092   2.750   8.438 -0.5690 -0.5045  1.3602
17473SOL    HW153860   2.170   2.695   8.443 -0.1599  0.1320  2.3420
17473SOL    HW253861   2.020   2.691   8.460 -0.3378 -1.0164  0.7821
17474SOL     OW53862   1.998   0.298   2.688 -0.2755  0.6924  0.1523
17474SOL    HW153863   2.085   0.336   2.695 -0.2660  0.3677  2.2566
17474SOL    HW253864   1.939   0.374   2.686  0.0085  0.9066 -1.1277
17475SOL     OW53865   5.308   7.420   5.130  0.0087 -0.3584  0.0921
17475SOL    HW153866   5.261   7.500   5.106  0.1683 -0.6003 -1.0723
17475SOL    HW253867   5.393   7.452   5.162  0.9132 -0.0912 -2.3388
17476SOL     OW53868   7.635   2.758   0.970 -0.3123 -0.4006 -0.4270
17476SOL    HW153869   7.636   2.684   1.030  0.7488  0.9486  1.3280
17476SOL    HW253870   7.720   2.800   0.982 -1.2658  1.7224 -0.4970
17477SOL     OW53871   1.754   5.066   0.379 -0.0344 -0.3956  0.3091
17477SOL    HW153872   1.722   5.038   0.464  1.5302 -0.6564  0.8495
17477SOL    HW253873   1.749   4.988   0.324 -0.0719 -0.5003  0.4605
17478SOL     OW53874   2.682   1.477   9.312  0.1983 -0.7156 -0.7762
17478SOL    HW153875   2.677   1.484   9.217  0.0303 -0.1713 -0.7303
17478SOL    HW253876   2.750   1.539   9.337 -1.0002  0.4948 -0.3957
17479SOL     OW53877   6.756   7.305   6.965 -0.5344 -0.2912  0.0685
17479SOL    HW153878   6.805   7.235   7.010  0.9194  0.2414 -0.6009
17479SOL    HW253879   6.683   7.260   6.923  0.9836 -1.6417 -1.2667
17480SOL     OW53880   0.358   7.289   3.699  0.2311  0.5047  0.1708
17480SOL    HW153881   0.359   7.338   3.782  0.8332  1.1485 -0.2030
17480SOL    HW253882   0.381   7.354   3.633  2.8203 -0.6396 -0.1522
17481SOL     OW53883   1.993   7.016   5.861 -0.3281  0.1571 -0.5459
17481SOL    HW153884   1.970   7.076   5.790 -2.2802 -0.4795 -0.5222
17481SOL    HW253885   2.082   6.988   5.841  0.1465  2.0218 -1.2705
17482SOL     OW53886   7.162   4.282  10.598 -0.3424  0.0140 -0.0244
17482SOL    HW153887   7.206   4.366  10.610 -0.4679 -0.1296  1.8253
17482SOL    HW253888   7.212   4.221  10.652 -1.9057 -0.4632  0.9574
17483SOL     OW53889   0.392   6.212   8.390  0.2320  0.3949 -1.2023
17483SOL    HW153890   0.382   6.197   8.296 -0.1416  0.2395 -1.1416
17483SOL    HW253891   0.360   6.131   8.430  2.1812 -0.3258 -0.9880
17484SOL     OW53892   2.682   1.430   8.184 -0.0452  0.2096  0.0728
17484SOL    HW153893   2.678   1.524   8.170 -0.2561 -0.1239 -2.5676
17484SOL    HW253894   2.594   1.398   8.163  0.2809 -0.6854  0.0040
17485SOL     OW53895   5.636   3.665   6.386 -0.3834  0.0433  0.3852
17485SOL    HW153896   5.591   3.728   6.330 -0.2880 -0.6910 -0.5401
17485SOL    HW253897   5.628   3.701   6.474 -0.5327  1.2214 -0.0962
17486SOL     OW53898   0.263   5.238   8.678  0.0676  0.2889  0.4162
17486SOL    HW153899   0.327   5.266   8.612 -0.7661 -1.4884 -1.2418
17486SOL    HW253900   0.240   5.318   8.724 -0.6244  2.0314 -2.6608
17487SOL     OW53901   7.709   6.996   8.574 -0.1534  0.5116 -0.1253
17487SOL    HW153902   7.673   6.977   8.488  0.7606 -0.0364 -0.4042
17487SOL    HW253903   7.684   6.921   8.628 -0.2983  0.6153 -0.0480
17488SOL     OW53904   1.845   1.754  11.388  0.1858 -0.2945 -0.4803
17488SOL    HW153905   1.859   1.712  11.303 -0.9001  0.6562 -1.1537
17488SOL    HW253906   1.912   1.716  11.445  1.1698 -0.6748 -1.8533
17489SOL     OW53907   2.131   5.870   2.002 -0.5600  0.3327  0.3465
17489SOL    HW153908   2.048   5.908   1.975 -0.3663 -0.3610 -1.3240
17489SOL    HW253909   2.111   5.777   2.018  0.2280 -0.3327 -2.0818
17490SOL     OW53910   5.920   1.797   8.132  0.4089  0.2379  0.4054
17490SOL    HW153911   5.900   1.887   8.107 -1.7870 -0.6073 -1.1862
17490SOL    HW253912   5.911   1.747   8.052 -0.6630 -1.7314  1.6686
17491SOL     OW53913   6.318   4.166   3.371  0.0231  0.4626  0.1785
17491SOL    HW153914   6.369   4.153   3.451  1.5820 -0.9667 -0.9755
17491SOL    HW253915   6.230   4.136   3.393  0.5765 -0.4710  1.2019
17492SOL     OW53916   1.783   1.391   7.008 -0.1693  0.1825  0.4580
17492SOL    HW153917   1.747   1.450   6.941  0.9723 -0.6421 -0.9628
17492SOL    HW253918   1.760   1.304   6.976 -3.4082 -0.2710  3.4260
17493SOL     OW53919   6.582   6.385   6.764  0.2501 -0.3314 -0.2936
17493SOL    HW153920   6.664   6.389   6.814  0.6446  0.5229 -0.9978
17493SOL    HW253921   6.554   6.294   6.773  1.1287 -0.5723  0.1839
17494SOL     OW53922   1.433   1.180   0.741 -0.2545 -0.2052 -0.6983
17494SOL    HW153923   1.388   1.150   0.819 -1.1719 -1.0772 -1.5272
17494SOL    HW253924   1.409   1.272   0.732  0.1074 -0.0190  0.1961
17495SOL     OW53925   5.239   0.124   9.601  0.4595 -0.1707 -0.2340
17495SOL    HW153926   5.310   0.061   9.585  0.9060  0.3613 -0.4010
17495SOL    HW253927   5.278   0.190   9.659 -0.1512 -0.3053  0.3475
17496SOL     OW53928   6.499   2.409   4.195  0.1906 -0.1834 -0.4291
17496SOL    HW153929   6.409   2.383   4.214  0.0752  0.3305 -0.2727
17496SOL    HW253930   6.516   2.374   4.107 -0.1262 -0.3639 -0.4210
17497SOL     OW53931   5.976   4.201  10.554 -0.1987 -0.0332 -0.2006
17497SOL    HW153932   6.020   4.227  10.636 -1.4433 -2.2562  1.2717
17497SOL    HW253933   5.885   4.227  10.567  0.0092  1.8432 -1.9929
17498SOL     OW53934   7.773   4.749   9.921  0.0533  0.0621 -0.5373
17498SOL    HW153935   7.836   4.703   9.865  0.8995  0.4238  0.1072
17498SOL    HW253936   7.823   4.819   9.962 -0.0904 -1.2282  2.0392
17499SOL     OW53937   4.355   3.121   2.824 -0.2602 -0.3372 -0.0997
17499SOL    HW153938   4.426   3.124   2.889 -1.2535 -0.2532  1.0164
17499SOL    HW253939   4.352   3.030   2.796 -0.0790 -0.4656  0.2782
17500SOL     OW53940   3.034   3.775  10.147 -0.0601 -0.0151  0.0778
17500SOL    HW153941   3.065   3.819  10.227 -0.3319 -0.7381  0.5902
17500SOL    HW253942   3.032   3.844  10.081 -1.8714  1.1156  1.2134
17501SOL     OW53943   0.320   4.513   3.380  0.0988 -0.5019 -0.2061
17501SOL    HW153944   0.298   4.524   3.288  0.9318  1.4878 -0.2217
17501SOL    HW253945   0.412   4.488   3.380  0.6607  1.4151  0.0862
17502SOL     OW53946   1.267   0.635  11.561  0.1279 -0.2717  0.0935
17502SOL    HW153947   1.357   0.612  11.583  0.3762  1.8752  1.6647
17502SOL    HW253948   1.239   0.567  11.499  2.5522 -1.4017  0.1227
17503SOL     OW53949   7.408   7.360  10.270 -0.2863 -0.5424 -0.3748
17503SOL    HW153950   7.425   7.277  10.226 -0.3638 -0.7890  0.0572
17503SOL    HW253951   7.322   7.387  10.237  0.3744  0.1150 -1.6501
17504SOL     OW53952   3.460   1.314   0.448 -0.4862  0.0476  0.1432
17504SOL    HW153953   3.523   1.372   0.491 -2.1248  1.6770  0.4577
17504SOL    HW253954   3.444   1.354   0.363  1.1998 -2.0697 -1.2868
17505SOL     OW53955   6.212   6.674  10.619  0.2609 -0.1783  0.6609
17505SOL    HW153956   6.261   6.613  10.565  1.4899  0.4844  0.9900
17505SOL    HW253957   6.277   6.736  10.651 -1.0597  1.7987 -0.2977
17506SOL     OW53958   4.880   3.406  11.597 -0.5992  0.1561 -0.0839
17506SOL    HW153959   4.937   3.462  11.649 -0.0792  0.3907 -0.8966
17506SOL    HW253960   4.802   3.459  11.581 -0.4441  0.3556 -0.1793
17507SOL     OW53961   3.126   1.502   1.078  0.0776  0.2494 -0.3179
17507SOL    HW153962   3.180   1.551   1.140 -1.2203  1.9557 -0.4774
17507SOL    HW253963   3.054   1.468   1.131 -0.5073  0.8839 -0.6864
17508SOL     OW53964   3.366   1.212   9.026 -0.0125  0.3457  0.4448
17508SOL    HW153965   3.454   1.179   9.046 -0.0386 -0.1229 -0.1838
17508SOL    HW253966   3.327   1.143   8.973 -0.4489  0.9420 -0.0116
17509SOL     OW53967   2.208   2.540  10.990  0.2933 -0.1180  0.1844
17509SOL    HW153968   2.288   2.537  10.939  0.2983  1.8567  0.0099
17509SOL    HW253969   2.157   2.464  10.960  1.2188 -0.2356 -1.1609
17510SOL     OW53970   4.723   2.064   3.037  0.4495 -0.3145  0.6797
17510SOL    HW153971   4.681   1.985   3.003 -1.9388  1.8334 -1.9364
17510SOL    HW253972   4.655   2.105   3.091  0.8052  1.0330  0.1340
17511SOL     OW53973   1.536   2.339   3.394 -0.2388  0.0516  1.1244
17511SOL    HW153974   1.583   2.280   3.453  1.4189 -0.7822 -0.8939
17511SOL    HW253975   1.468   2.285   3.354 -0.4438  0.2339  1.2232
17512SOL     OW53976   3.222   3.474  10.148  0.0226  0.0828  0.0948
17512SOL    HW153977   3.288   3.540  10.167  1.1406 -0.6282 -1.1362
17512SOL    HW253978   3.216   3.472  10.053  0.2943 -1.8041  0.0664
17513SOL     OW53979   3.853   3.809   3.502  0.5464 -0.1234  0.4553
17513SOL    HW153980   3.874   3.901   3.485 -1.7903  0.4406  0.2341
17513SOL    HW253981   3.858   3.801   3.597 -1.9414  1.0706  0.7821
17514SOL     OW53982   7.948   2.869   4.166  0.2820 -0.1836  0.0687
17514SOL    HW153983   8.009   2.817   4.113  0.4721  0.9478 -0.8683
17514SOL    HW253984   7.993   2.881   4.250  2.1319  1.9439 -1.1130
17515SOL     OW53985   3.475   5.620   6.770 -0.1043 -0.5203  0.4936
17515SOL    HW153986   3.465   5.551   6.704  1.1229  0.9115 -1.2915
17515SOL    HW253987   3.411   5.686   6.745  0.6295  0.2053  0.4996
17516SOL     OW53988   6.966   3.508  10.786 -0.1546  0.0575 -0.5495
17516SOL    HW153989   7.020   3.509  10.865  0.1717 -0.9155 -0.7497
17516SOL    HW253990   7.016   3.456  10.723 -0.4467  0.7533 -1.3805
17517SOL     OW53991   6.020   0.656   8.185  0.0846  0.2476  0.3032
17517SOL    HW153992   6.038   0.680   8.276 -0.7070  1.2678  0.2120
17517SOL    HW253993   5.951   0.717   8.158  0.0340 -0.3075 -0.8576
17518SOL     OW53994   4.765   0.655   4.773 -0.2409  0.0840  0.5204
17518SOL    HW153995   4.740   0.726   4.714  0.3307 -0.0982  0.0441
17518SOL    HW253996   4.861   0.662   4.780 -0.1852 -0.5877  0.5288
17519SOL     OW53997   7.839   1.399   9.490 -0.2888 -0.6178 -0.5005
17519SOL    HW153998   7.909   1.339   9.464  3.1507  2.0255  1.7262
17519SOL    HW253999   7.841   1.468   9.423 -1.2348 -0.8259 -0.7550
17520SOL     OW54000   3.646   7.093   4.766 -0.5919 -0.7827 -0.2212
17520SOL    HW154001   3.672   7.120   4.678 -0.7457 -2.9745 -1.0060
17520SOL    HW254002   3.551   7.085   4.761 -0.6229 -0.7094  0.2218
17521SOL     OW54003   6.790   4.716   3.135  0.3194 -0.0585 -0.4789
17521SOL    HW154004   6.720   4.651   3.135  0.0444  0.2342 -0.3564
17521SOL    HW254005   6.744   4.800   3.135  0.6426  0.1596  1.5906
17522SOL     OW54006   5.972   7.927  10.031  0.1748 -0.0424 -0.1834
17522SOL    HW154007   5.908   7.886  10.090 -0.0953  1.5872  0.7298
17522SOL    HW254008   6.002   7.856   9.975 -1.2804 -1.1790  0.4056
17523SOL     OW54009   2.290   5.777   6.442  0.5833 -0.4100  0.3739
17523SOL    HW154010   2.368   5.739   6.400  2.1077 -0.7948  3.2828
17523SOL    HW254011   2.286   5.734   6.527 -2.0129  0.6891  0.8933
17524SOL     OW54012   1.191   4.950   4.315 -0.0334  0.1914  0.6771
17524SOL    HW154013   1.118   4.975   4.257 -1.7057  0.9850  2.9445
17524SOL    HW254014   1.237   5.033   4.331  0.9568 -0.1808 -0.1579
17525SOL     OW54015   1.364   3.075   4.438  0.1204  0.1391  0.1353
17525SOL    HW154016   1.456   3.050   4.431  0.0111 -0.3936  0.5705
17525SOL    HW254017   1.324   3.005   4.490 -0.9493 -0.7446 -1.7658
17526SOL     OW54018   5.811   0.037   0.450  0.0032  0.2284  0.6800
17526SOL    HW154019   5.887   0.086   0.418 -0.5218 -0.7434 -2.3690
17526SOL    HW254020   5.829  -0.054   0.426 -1.2080 -0.3496  1.8251
17527SOL     OW54021   6.400   5.071   8.305  0.1806  0.2313 -0.1399
17527SOL    HW154022   6.389   5.134   8.376  1.2602 -0.3121  0.5288
17527SOL    HW254023   6.424   4.989   8.348 -1.1775 -0.6569 -0.9950
17528SOL     OW54024   3.216   5.842   9.812 -0.6282 -0.2037  0.4536
17528SOL    HW154025   3.215   5.936   9.793  0.0492  0.7519  4.1712
17528SOL    HW254026   3.254   5.802   9.734  1.6732  2.9577 -0.2843
17529SOL     OW54027   1.342   2.054   7.126  0.5220 -0.1959 -0.4101
17529SOL    HW154028   1.434   2.075   7.142  0.7957 -2.1248  0.9745
17529SOL    HW254029   1.294   2.132   7.154  1.5356 -0.6335  3.0453
17530SOL     OW54030   6.680   3.921   0.877  0.0042  0.2428 -0.0936
17530SOL    HW154031   6.739   3.978   0.828 -1.1244  1.5034 -0.0382
17530SOL    HW254032   6.625   3.981   0.928 -0.4013 -0.9454  0.9298
17531SOL     OW54033   5.308   3.444   1.074 -0.8262 -0.0591  0.7497
17531SOL    HW154034   5.256   3.373   1.112 -0.5723  1.2762  3.9649
17531SOL    HW254035   5.399   3.416   1.086 -0.6196  1.5137  4.1014
17532SOL     OW54036   2.225   5.729   5.167  0.0881  0.0552 -0.2724
17532SOL    HW154037   2.135   5.701   5.183  0.1236  0.6735  1.1476
17532SOL    HW254038   2.217   5.815   5.125 -0.0018  0.4931  0.6129
17533SOL     OW54039   0.911   4.779   1.711 -0.1792  0.3978 -0.1079
17533SOL    HW154040   0.938   4.687   1.714  0.4793  0.5398  3.7356
17533SOL    HW254041   0.984   4.824   1.669  0.2820 -0.6235 -0.4464
17534SOL     OW54042   3.052   7.788   2.104  0.0661  0.0186 -0.2271
17534SOL    HW154043   3.025   7.777   2.013  1.0349 -1.5684 -0.3558
17534SOL    HW254044   3.059   7.883   2.115 -0.5777  0.2562 -1.6442
17535SOL     OW54045   7.489   0.384   9.654 -0.2892 -0.0538  0.4271
17535SOL    HW154046   7.501   0.455   9.592 -0.7670  1.0115  1.5209
17535SOL    HW254047   7.418   0.331   9.617  2.0298 -1.7694 -1.9339
17536SOL     OW54048   1.818   7.648  11.054 -0.8173  0.0390  0.0966
17536SOL    HW154049   1.876   7.598  10.997 -2.8136 -1.0426 -1.1307
17536SOL    HW254050   1.857   7.735  11.058  0.4794 -0.4307 -1.2794
17537SOL     OW54051   3.963   2.339   9.137 -0.7550 -0.1870  0.1193
17537SOL    HW154052   3.942   2.310   9.226 -1.0048 -1.2535 -0.2780
17537SOL    HW254053   3.902   2.292   9.081 -0.4451  0.3048 -0.6455
17538SOL     OW54054   7.914   3.504   5.035 -0.1238 -0.5561  0.1791
17538SOL    HW154055   7.957   3.459   5.108  0.6226 -0.5871 -0.2634
17538SOL    HW254056   7.895   3.592   5.069 -0.7545 -0.9041  0.7468
17539SOL     OW54057   4.320   6.746   8.117 -0.2043  0.0300 -0.3618
17539SOL    HW154058   4.310   6.681   8.186  1.2059 -0.8314 -0.9445
17539SOL    HW254059   4.238   6.741   8.067 -0.2201 -1.0863 -0.2283
17540SOL     OW54060   1.245   5.565   5.187  0.9061  0.0291 -0.0443
17540SOL    HW154061   1.250   5.501   5.258 -0.8546 -0.0139  0.0681
17540SOL    HW254062   1.166   5.616   5.205  3.0487  3.4348  0.8182
17541SOL     OW54063   1.808   7.733   5.254  0.1482 -0.1856 -0.4823
17541SOL    HW154064   1.736   7.679   5.286 -1.0282  1.2703 -0.5522
17541SOL    HW254065   1.881   7.712   5.312 -0.9136 -0.2403  0.8891
17542SOL     OW54066   3.471   2.167   5.749 -0.4921 -0.1739 -0.0426
17542SOL    HW154067   3.427   2.182   5.833  0.4980 -2.4381  0.9763
17542SOL    HW254068   3.494   2.255   5.718 -3.0036  0.8747  0.8404
17543SOL     OW54069   3.775   7.887  10.684  0.4863 -0.0306 -0.0856
17543SOL    HW154070   3.744   7.834  10.610 -1.6898  2.5343 -1.2028
17543SOL    HW254071   3.696   7.904  10.736  1.4492  0.6217  1.2097
17544SOL     OW54072   6.248   4.154  12.272  0.9383  0.4560  0.0077
17544SOL    HW154073   6.239   4.246  12.296  0.0222  0.1011  1.1213
17544SOL    HW254074   6.227   4.106  12.353  1.1657 -0.7314 -0.6170
17545SOL     OW54075   0.635   0.541   4.438 -0.0144  0.3378  0.5763
17545SOL    HW154076   0.644   0.519   4.346 -2.3589  2.0356 -0.1540
17545SOL    HW254077   0.716   0.587   4.460 -0.7280  2.8768 -1.6470
17546SOL     OW54078   7.466   0.933   5.709  0.4666 -0.5384 -0.2239
17546SOL    HW154079   7.496   1.008   5.657  1.2980 -0.3497  0.5059
17546SOL    HW254080   7.388   0.902   5.663 -0.9141  1.7998  0.3504
17547SOL     OW54081   7.031   4.762   4.480  0.4850  0.0271 -0.5313
17547SOL    HW154082   6.941   4.759   4.449 -0.3365 -2.3664  1.7261
17547SOL    HW254083   7.039   4.846   4.525 -0.4003  0.5181 -1.2708
17548SOL     OW54084   3.775   4.849  10.259  0.1549  0.2459  0.2069
17548SOL    HW154085   3.862   4.840  10.296 -0.2619 -1.2844  0.8866
17548SOL    HW254086   3.790   4.861  10.165  1.1088  0.6628  0.4028
17549SOL     OW54087   6.561   3.291   3.769  0.0727 -1.5493  0.0203
17549SOL    HW154088   6.494   3.264   3.833  0.4730 -0.6592  0.8247
17549SOL    HW254089   6.641   3.299   3.820  0.3472 -0.5767 -0.5404
17550SOL     OW54090   1.516   1.673   7.041 -0.3019  0.3652 -0.1782
17550SOL    HW154091   1.539   1.721   7.121 -0.5883  2.4764 -1.2962
17550SOL    HW254092   1.601   1.653   7.000 -0.0760 -1.8269  1.1662
17551SOL     OW54093   6.080   2.480   1.334  0.2972 -0.3460 -0.1411
17551SOL    HW154094   6.047   2.544   1.272 -1.3064 -0.7577  0.2432
17551SOL    HW254095   6.002   2.451   1.382  1.0807 -2.0610  0.1620
17552SOL     OW54096   7.893   7.705   8.274 -0.1046  0.0195 -0.0155
17552SOL    HW154097   7.873   7.633   8.213  2.8625 -0.0646 -1.0731
17552SOL    HW254098   7.860   7.783   8.230  0.1682 -0.2847 -0.7907
17553SOL     OW54099   6.158   4.521  11.060 -0.6220  0.1907 -0.6363
17553SOL    HW154100   6.205   4.604  11.052 -0.8098  0.2111 -1.7022
17553SOL    HW254101   6.225   4.454  11.050 -0.4366  0.2000  0.4396
17554SOL     OW54102   7.872   7.525   4.523 -0.1452 -0.3222 -0.0483
17554SOL    HW154103   7.781   7.507   4.543  0.1374 -1.0464  0.6439
17554SOL    HW254104   7.870   7.602   4.467 -1.1649 -0.2248  0.1135
17555SOL     OW54105   1.431   7.342   7.756  0.2579  0.0447 -0.2761
17555SOL    HW154106   1.443   7.300   7.841 -1.7382 -1.7109 -0.8045
17555SOL    HW254107   1.488   7.293   7.697  0.1303 -0.0316 -0.3357
17556SOL     OW54108   7.386   6.512   8.370 -0.0195 -0.3337 -0.3599
17556SOL    HW154109   7.374   6.478   8.281 -1.1517  0.7455 -0.6523
17556SOL    HW254110   7.334   6.453   8.425 -1.4072  0.4645 -0.7711
17557SOL     OW54111   2.920   0.579   7.459  0.0040 -0.5484  0.3593
17557SOL    HW154112   2.979   0.509   7.432 -0.9241 -0.9349 -0.7256
17557SOL    HW254113   2.971   0.659   7.447  0.3082 -0.8708 -0.6158
17558SOL     OW54114   6.703   3.490   0.413 -0.2583  0.2695  0.1864
17558SOL    HW154115   6.728   3.465   0.323  0.4741  1.9744 -0.1165
17558SOL    HW254116   6.627   3.435   0.432 -0.0163 -0.6223 -1.2124
17559SOL     OW54117   3.599   4.610   7.022  0.2653  0.1195 -0.4498
17559SOL    HW154118   3.583   4.580   6.933  0.2069  1.9536 -1.0945
17559SOL    HW254119   3.680   4.565   7.049  0.1085 -0.6914 -1.2860
17560SOL     OW54120   2.363   7.749  12.064 -0.1084 -0.2060  0.1611
17560SOL    HW154121   2.387   7.711  12.149  1.8305 -0.5786 -0.4979
17560SOL    HW254122   2.280   7.794  12.081  0.0063 -0.6165  2.1451
17561SOL     OW54123   7.804   4.163   1.232 -0.4004  0.1505 -0.1231
17561SOL    HW154124   7.839   4.093   1.176  1.0566 -0.3505  1.3326
17561SOL    HW254125   7.727   4.124   1.274 -1.3472  0.4407 -1.5187
17562SOL     OW54126   0.828   3.173   7.980  0.1247 -0.7727 -0.4541
17562SOL    HW154127   0.733   3.189   7.981  0.0179 -1.2442 -1.7051
17562SOL    HW254128   0.866   3.256   8.009 -0.6634 -0.6052  0.1432
17563SOL     OW54129   4.633   5.781   6.970 -0.2650 -0.0024  0.4082
17563SOL    HW154130   4.657   5.701   7.017  0.8319  0.2121  0.2431
17563SOL    HW254131   4.665   5.851   7.026  1.0967  0.2597 -0.6496
17564SOL     OW54132   4.518   1.149  10.330  0.3695 -0.8342  0.6160
17564SOL    HW154133   4.472   1.067  10.347  1.9170 -2.3451 -1.7848
17564SOL    HW254134   4.611   1.125  10.331  0.9619  1.2702  1.4650
17565SOL     OW54135   4.035   5.309   0.163 -0.2575  0.5063  0.2691
17565SOL    HW154136   4.106   5.360   0.124 -0.8927  0.8018 -0.5227
17565SOL    HW254137   4.032   5.229   0.112 -1.4468  1.1278 -0.6792
17566SOL     OW54138   1.610   7.121   7.735  0.2675  0.1417  0.0655
17566SOL    HW154139   1.636   7.119   7.827 -2.4126  1.2358  0.9602
17566SOL    HW254140   1.687   7.153   7.689  1.0463  1.5743  2.2114
17567SOL     OW54141   5.072   6.229   0.131 -0.0750  0.8965  0.0691
17567SOL    HW154142   5.070   6.187   0.045  0.8227 -0.9625  0.8953
17567SOL    HW254143   5.040   6.317   0.115  1.1686  0.9915 -2.3947
17568SOL     OW54144   0.304   0.087   0.979 -0.1895  0.0182 -0.5577
17568SOL    HW154145   0.253   0.090   0.899 -0.3353 -0.6351 -0.4898
17568SOL    HW254146   0.372   0.153   0.966 -0.0702 -0.2434 -1.3113
17569SOL     OW54147   3.547   7.697   8.736 -0.2622 -0.2703 -0.0089
17569SOL    HW154148   3.501   7.749   8.669 -0.3106 -0.1302  0.1321
17569SOL    HW254149   3.633   7.738   8.742 -1.1985  1.6331  2.1198
17570SOL     OW54150   7.684   1.393   4.017 -0.3337 -0.1171 -0.0831
17570SOL    HW154151   7.610   1.429   4.065  0.2540  1.5011 -0.3397
17570SOL    HW254152   7.665   1.299   4.010 -1.4997 -0.0137  1.3401
17571SOL     OW54153   4.976   0.708  10.285  0.2949  0.3828  0.1300
17571SOL    HW154154   4.900   0.725  10.229  0.1172  1.9100  0.7825
17571SOL    HW254155   5.017   0.793  10.297  1.4950 -0.2453  0.6853
17572SOL     OW54156   7.636   4.282   5.638 -0.0923  0.0244 -0.0830
17572SOL    HW154157   7.612   4.253   5.550 -2.0103 -2.1909  1.0566
17572SOL    HW254158   7.586   4.363   5.651 -0.9117 -0.3867 -0.5662
17573SOL     OW54159   7.917   3.877   6.616 -0.4615  0.2335 -0.8579
17573SOL    HW154160   7.834   3.899   6.573 -1.6255 -1.7764  0.2083
17573SOL    HW254161   7.946   3.796   6.573  0.8127  0.7247 -0.9814
17574SOL     OW54162   3.185   1.863   2.948  0.1188 -0.0319  0.5687
17574SOL    HW154163   3.168   1.949   2.986  1.2356  0.7827 -0.6747
17574SOL    HW254164   3.143   1.866   2.861  0.7514 -0.4863  0.2402
17575SOL     OW54165   5.688   0.460   0.871 -0.1088 -0.1426 -0.0241
17575SOL    HW154166   5.684   0.381   0.924 -1.9618 -0.6141 -0.7863
17575SOL    HW254167   5.730   0.433   0.789 -0.0333 -0.1467  0.0159
17576SOL     OW54168   6.719   4.990   3.160 -0.3693  0.5632  0.6003
17576SOL    HW154169   6.642   5.027   3.118 -1.3020 -0.5194  1.2700
17576SOL    HW254170   6.710   5.014   3.252  0.0750  0.4101  0.6877
17577SOL     OW54171   7.593   2.032  10.145  0.1890 -0.4329  0.1577
17577SOL    HW154172   7.627   2.101  10.202  0.3842  1.1009 -1.6924
17577SOL    HW254173   7.654   1.959  10.155  2.8949  1.4489 -1.4016
17578SOL     OW54174   5.226   0.937   7.655 -0.0430  0.5079  0.3250
17578SOL    HW154175   5.160   0.963   7.590 -0.3838  0.4614  0.6491
17578SOL    HW254176   5.179   0.877   7.713  0.5607 -0.3514 -0.0527
17579SOL     OW54177   1.131   2.339   8.588 -0.5862 -0.1789  0.0793
17579SOL    HW154178   1.200   2.287   8.546 -0.8150 -0.8709  0.5333
17579SOL    HW254179   1.104   2.285   8.663 -1.2556  0.3277  0.2056
17580SOL     OW54180   3.115   3.575   4.822 -0.8209  0.9123 -0.0637
17580SOL    HW154181   3.056   3.510   4.784 -0.3077  0.5032 -0.1745
17580SOL    HW254182   3.202   3.540   4.805 -0.5199  1.8684 -0.5543
17581SOL     OW54183   3.190   7.149   1.263 -0.2280  0.0822  0.5596
17581SOL    HW154184   3.153   7.234   1.241 -1.8268 -0.3297  1.5150
17581SOL    HW254185   3.245   7.166   1.340  1.4336  0.6444 -0.6983
17582SOL     OW54186   3.141   4.876   4.317  0.0937  0.4816  0.0436
17582SOL    HW154187   3.198   4.883   4.240 -0.0613  1.9336  0.0365
17582SOL    HW254188   3.097   4.960   4.322 -0.0007  0.3607  1.6607
17583SOL     OW54189   7.207   0.402  10.217 -0.3126  0.0185  0.1956
17583SOL    HW154190   7.158   0.415  10.135 -1.0685  0.9272  0.7660
17583SOL    HW254191   7.215   0.307  10.225 -1.8711 -0.1604 -0.0079
17584SOL     OW54192   4.087   7.700   7.684 -0.0586 -0.0070  0.7516
17584SOL    HW154193   4.161   7.653   7.645 -0.0731  1.3158 -1.0373
17584SOL    HW254194   4.010   7.666   7.637  0.0542  2.5975 -1.6333
17585SOL     OW54195   4.356   1.712   8.775  0.0966 -0.1166 -0.5794
17585SOL    HW154196   4.332   1.792   8.823 -3.3960 -1.9436  1.0767
17585SOL    HW254197   4.296   1.645   8.807  2.7562 -3.4915 -1.9604
17586SOL     OW54198   4.518   3.398   9.803 -0.4328  0.4350 -0.1753
17586SOL    HW154199   4.478   3.395   9.716 -0.0904 -1.3021 -0.3122
17586SOL    HW254200   4.451   3.365   9.862 -0.3729  0.8113  0.1108
17587SOL     OW54201   7.157   6.259   3.544  0.4995  0.1662 -0.1021
17587SOL    HW154202   7.189   6.177   3.509 -0.3585  0.2521 -1.1453
17587SOL    HW254203   7.071   6.271   3.504 -1.0129 -0.1902  2.7375
17588SOL     OW54204   3.158   0.895  10.008  0.1196  0.7204  0.0050
17588SOL    HW154205   3.237   0.899  10.062 -0.5839  0.7931  1.0572
17588SOL    HW254206   3.162   0.809   9.966 -0.0570  0.0229  1.3546
17589SOL     OW54207   1.322   7.259   9.855 -0.0630 -0.1476 -0.0838
17589SOL    HW154208   1.243   7.270   9.909  0.3031 -1.4618  0.7717
17589SOL    HW254209   1.288   7.238   9.768 -0.6550  1.4451 -0.2740
17590SOL     OW54210   0.147   5.653  12.330 -0.3790 -0.0739  0.2859
17590SOL    HW154211   0.122   5.562  12.345  0.3507 -0.4553 -0.7121
17590SOL    HW254212   0.086   5.704  12.384 -1.2731 -1.1070  0.2860
17591SOL     OW54213   6.998   1.740   9.798 -0.6128  0.5930  0.3930
17591SOL    HW154214   6.914   1.702   9.824 -1.0510  0.5530 -1.0012
17591SOL    HW254215   7.002   1.727   9.703  0.5220  1.4788  0.2967
17592SOL     OW54216   1.419   6.441   1.820  0.3768  0.2181  0.4108
17592SOL    HW154217   1.398   6.357   1.861 -0.7362  0.9051  1.3045
17592SOL    HW254218   1.337   6.468   1.779  1.0128  0.3733 -0.7980
17593SOL     OW54219   6.616   4.342  12.166 -0.3136  0.0210 -0.1969
17593SOL    HW154220   6.629   4.312  12.256  3.1068  0.0106 -0.5677
17593SOL    HW254221   6.600   4.262  12.116  1.7310 -0.4746 -0.1288
17594SOL     OW54222   5.243   6.361   6.914  0.1513  0.6256  0.0874
17594SOL    HW154223   5.166   6.414   6.892  0.3150  1.0049  0.4003
17594SOL    HW254224   5.239   6.352   7.009  0.0722 -0.0182  0.0293
17595SOL     OW54225   2.653   0.603   7.870  0.3243 -0.4510 -0.0692
17595SOL    HW154226   2.729   0.588   7.813 -0.1115  0.5096 -0.9187
17595SOL    HW254227   2.599   0.525   7.858 -0.1229  0.0483 -1.5769
17596SOL     OW54228   7.356   5.116   2.806 -0.3622  0.4897 -0.5156
17596SOL    HW154229   7.341   5.042   2.747 -1.9052  0.6983 -0.4421
17596SOL    HW254230   7.388   5.186   2.750 -1.1304  0.4647 -1.0061
17597SOL     OW54231   2.908   7.237   7.329  0.2794  0.4602 -0.1398
17597SOL    HW154232   2.968   7.190   7.387 -2.0027 -1.1528  1.0455
17597SOL    HW254233   2.931   7.204   7.241  1.0285 -0.2419  0.3001
17598SOL     OW54234   3.984   7.384   2.126 -0.1342 -0.0330 -0.0790
17598SOL    HW154235   3.984   7.343   2.039  1.3173 -0.0339 -0.1052
17598SOL    HW254236   4.035   7.324   2.181  1.3526  1.3098  0.0772
17599SOL     OW54237   5.833   6.084   1.318 -0.0202  0.1142 -0.2095
17599SOL    HW154238   5.781   6.043   1.249  0.6755 -0.1909 -0.5527
17599SOL    HW254239   5.882   6.012   1.358 -0.1854  0.3311  0.4089
17600SOL     OW54240   0.148   6.789  11.783  0.0221 -0.2265 -0.1310
17600SOL    HW154241   0.082   6.768  11.717 -1.1511  0.3035  0.8169
17600SOL    HW254242   0.101   6.780  11.867  1.0366  0.6030  0.5496
17601SOL     OW54243   4.051   7.807   4.096  0.0192  0.2295  0.0214
17601SOL    HW154244   4.052   7.852   4.012 -0.0958  1.5459  0.7036
17601SOL    HW254245   4.008   7.723   4.078  0.3578  0.3258 -1.3012
17602SOL     OW54246   1.497   2.276   9.372  0.3784  0.1663 -0.0238
17602SOL    HW154247   1.489   2.212   9.443 -1.1833  0.6047  0.2204
17602SOL    HW254248   1.531   2.355   9.415  1.9750 -0.3617 -0.2645
17603SOL     OW54249   6.141   4.614   4.724 -0.2128 -0.3515  0.0260
17603SOL    HW154250   6.147   4.704   4.691 -1.7297  0.2277  1.2371
17603SOL    HW254251   6.096   4.566   4.654  0.5723 -0.2029 -0.6069
17604SOL     OW54252   7.230   2.373   9.079 -0.1810  0.0984  0.0978
17604SOL    HW154253   7.262   2.283   9.088 -0.1314  0.0771 -0.2865
17604SOL    HW254254   7.295   2.417   9.024 -0.7282  0.0919 -0.5679
17605SOL     OW54255   6.156   4.326   2.711  0.1564 -0.0311  0.5496
17605SOL    HW154256   6.089   4.274   2.756  0.9380 -0.6963  0.9687
17605SOL    HW254257   6.112   4.357   2.632 -0.5780 -0.6608  0.6890
17606SOL     OW54258   6.262   3.596   7.364 -0.2812  0.1898 -0.1725
17606SOL    HW154259   6.250   3.651   7.442  0.0864  0.9167 -0.6187
17606SOL    HW254260   6.200   3.525   7.376 -0.3620  0.3880  0.7004
17607SOL     OW54261   2.748   7.146   5.444  0.1320 -0.0099  0.0651
17607SOL    HW154262   2.786   7.059   5.432 -2.2736 -0.8720 -2.5646
17607SOL    HW254263   2.661   7.129   5.481 -0.6988  1.1429 -1.2710
17608SOL     OW54264   6.075   1.245   5.188  0.3367 -0.0634 -0.3282
17608SOL    HW154265   6.063   1.248   5.093 -0.1729 -0.3605 -0.2752
17608SOL    HW254266   6.020   1.316   5.222  2.6050  1.8623 -0.4359
17609SOL     OW54267   3.286   5.722   5.251 -0.1088 -0.2930 -0.1153
17609SOL    HW154268   3.375   5.742   5.279  0.1923  1.4116 -2.0011
17609SOL    HW254269   3.287   5.735   5.156 -2.2346 -0.7524 -0.2620
17610SOL     OW54270   6.637   2.713   3.519 -0.3065  0.6628  0.2146
17610SOL    HW154271   6.657   2.631   3.475 -1.0489  0.2840  0.5710
17610SOL    HW254272   6.635   2.778   3.449 -2.7228 -0.1372 -0.5369
17611SOL     OW54273   5.667   6.534   3.179 -0.3447  0.0978 -0.4257
17611SOL    HW154274   5.754   6.506   3.152 -0.2886 -0.4196  0.2541
17611SOL    HW254275   5.631   6.579   3.103  0.4881  0.2513 -0.7336
17612SOL     OW54276   4.043   0.988   0.332 -0.2439  0.3659 -0.2039
17612SOL    HW154277   4.120   1.027   0.373  0.8039 -0.4246 -1.3443
17612SOL    HW254278   4.028   0.907   0.381  2.3693 -1.7525 -2.5608
17613SOL     OW54279   5.462   4.328   4.131  0.5982  0.3517 -0.2979
17613SOL    HW154280   5.430   4.396   4.072  0.2032 -0.3435 -0.8988
17613SOL    HW254281   5.514   4.270   4.075 -0.4881 -0.7979 -0.1686
17614SOL     OW54282   5.433   7.816   9.620  0.0019  0.4573 -0.4464
17614SOL    HW154283   5.517   7.772   9.631 -0.1040  0.3212 -0.1816
17614SOL    HW254284   5.377   7.751   9.578 -0.5368 -0.1158  1.0880
17615SOL     OW54285   5.777   6.503   9.274 -0.3670  0.1350  0.1685
17615SOL    HW154286   5.865   6.535   9.252  0.1229 -0.0732  1.7393
17615SOL    HW254287   5.728   6.582   9.297  0.0039  0.0768  1.2190
17616SOL     OW54288   5.682   6.387   8.095 -0.5885  0.5350 -0.1837
17616SOL    HW154289   5.772   6.360   8.072 -0.7158  1.8047 -2.5219
17616SOL    HW254290   5.655   6.443   8.022 -2.8311  1.2524  1.1128
17617SOL     OW54291   7.384   3.211   6.805  0.3753 -0.0668 -0.1793
17617SOL    HW154292   7.399   3.134   6.750  0.5954  0.9941 -1.6748
17617SOL    HW254293   7.405   3.182   6.893 -1.5779 -2.3279 -0.3552
17618SOL     OW54294   2.349   5.806   3.942 -0.0567 -0.3293 -0.0384
17618SOL    HW154295   2.311   5.732   3.896  1.9267 -0.8809 -0.8646
17618SOL    HW254296   2.290   5.879   3.923 -1.7072 -1.5301  0.2976
17619SOL     OW54297   4.463   5.002   2.784 -0.6412 -0.0641  0.3447
17619SOL    HW154298   4.452   4.963   2.871  1.5178 -0.4136  0.4997
17619SOL    HW254299   4.497   5.089   2.801 -0.2626 -0.1125 -0.1558
17620SOL     OW54300   6.348   4.072   0.809 -0.0836  0.1450 -0.9274
17620SOL    HW154301   6.386   4.026   0.734  1.8537  0.0617  0.0445
17620SOL    HW254302   6.375   4.022   0.885 -2.3477  0.0168 -0.1456
17621SOL     OW54303   6.687   3.983  11.682  0.0536  0.0418 -0.3509
17621SOL    HW154304   6.698   3.939  11.767  0.4958 -0.7198 -0.7898
17621SOL    HW254305   6.768   4.032  11.669 -0.7626  1.6706  0.5051
17622SOL     OW54306   0.484   2.234   7.618  0.2583  0.0205 -0.3236
17622SOL    HW154307   0.530   2.153   7.595  2.1291  1.1008 -0.5628
17622SOL    HW254308   0.531   2.303   7.571 -1.2282  1.2883 -0.0402
17623SOL     OW54309   0.126   7.619   8.465  0.2840  0.6543  0.3832
17623SOL    HW154310   0.146   7.711   8.484  2.4545  0.6020 -1.2943
17623SOL    HW254311   0.072   7.623   8.386 -1.5564  0.5227  1.5766
17624SOL     OW54312   7.372   3.547   9.370  0.3289 -0.2180  0.1102
17624SOL    HW154313   7.393   3.471   9.316  0.0519  0.1354 -0.4996
17624SOL    HW254314   7.279   3.563   9.354  0.3741  0.2183  0.2784
17625SOL     OW54315   4.433   1.697   8.038  0.5833  0.3731  0.1481
17625SOL    HW154316   4.377   1.768   8.007 -0.9226 -1.9556 -2.9108
17625SOL    HW254317   4.520   1.720   8.006  0.3472  1.3818  0.1943
17626SOL     OW54318   2.061   1.746   6.857 -0.2476 -0.4897 -0.3091
17626SOL    HW154319   2.115   1.825   6.855 -1.2032  0.1661 -1.2363
17626SOL    HW254320   2.082   1.705   6.941 -0.9628  1.6500  1.0191
17627SOL     OW54321   7.608   2.515   4.899  0.2185  0.3171 -0.2368
17627SOL    HW154322   7.679   2.557   4.851  0.4187  1.9420  1.3886
17627SOL    HW254323   7.590   2.574   4.973 -0.1480 -1.9614  1.6259
17628SOL     OW54324   5.724   3.241   8.047 -0.2480  0.2336 -0.1859
17628SOL    HW154325   5.643   3.195   8.024 -0.6397  1.0273 -0.4388
17628SOL    HW254326   5.769   3.182   8.108 -0.1705 -1.0131 -1.3879
17629SOL     OW54327   4.118   6.264   5.105  0.3823  0.1592 -0.1792
17629SOL    HW154328   4.201   6.311   5.103  1.0100 -0.8991 -0.3046
17629SOL    HW254329   4.141   6.174   5.079 -0.8458 -0.0904 -0.4803
17630SOL     OW54330   0.981   0.320   2.562  0.1547 -0.4114  0.1235
17630SOL    HW154331   1.074   0.340   2.551  0.2153  0.8479  2.3764
17630SOL    HW254332   0.978   0.225   2.567  1.3579 -0.4659  0.2110
17631SOL     OW54333   6.652   7.842   2.929 -0.4429  0.0135  0.2119
17631SOL    HW154334   6.615   7.767   2.882  0.6044 -0.3455 -0.0687
17631SOL    HW254335   6.690   7.804   3.008  0.6903  0.1325 -0.2554
17632SOL     OW54336   6.240   0.166   4.254  0.1029  0.7141 -0.2783
17632SOL    HW154337   6.217   0.102   4.321 -0.1989 -2.5352 -3.2453
17632SOL    HW254338   6.163   0.222   4.246  0.0752  1.0558  1.8226
17633SOL     OW54339   7.366   3.620   2.449 -0.0818  0.4828  0.6059
17633SOL    HW154340   7.411   3.662   2.375  0.6941  1.2384  1.4736
17633SOL    HW254341   7.274   3.614   2.421  0.2200  0.6283 -0.4621
17634SOL     OW54342   5.286   2.433   8.855 -0.3394  0.1770  0.0884
17634SOL    HW154343   5.366   2.380   8.846 -0.3466  0.5083 -2.7691
17634SOL    HW254344   5.225   2.376   8.901  0.8955 -0.8204  0.5711
17635SOL     OW54345   2.980   3.555   1.859 -0.1019  0.1800  0.1119
17635SOL    HW154346   3.018   3.482   1.908 -0.9463 -0.2320  0.1739
17635SOL    HW254347   3.044   3.625   1.868  2.0600 -1.3342 -2.2019
17636SOL     OW54348   1.741   2.775   2.324 -0.2141 -0.0284  0.0815
17636SOL    HW154349   1.742   2.869   2.340  0.4816  0.4089 -2.2798
17636SOL    HW254350   1.828   2.745   2.349  0.1661  0.2877 -0.8265
17637SOL     OW54351   7.407   0.183   2.791  0.2802  0.6728  0.2332
17637SOL    HW154352   7.347   0.246   2.751 -0.6321  0.6050  1.4284
17637SOL    HW254353   7.359   0.149   2.867  1.5049 -0.0221  0.7291
17638SOL     OW54354   2.338   7.891   1.071  0.2548  0.1938 -0.3886
17638SOL    HW154355   2.341   7.835   0.994  0.0633  0.8506 -0.8805
17638SOL    HW254356   2.390   7.967   1.048  0.8099  0.0741  0.4091
17639SOL     OW54357   7.038   0.900   5.026  0.2119 -0.0647  0.1398
17639SOL    HW154358   7.031   0.901   5.122 -0.6855  1.2140  0.0972
17639SOL    HW254359   6.947   0.904   4.996  0.4952 -0.3375 -0.7613
17640SOL     OW54360   4.727   5.809   8.895  0.5620 -0.3996  0.2044
17640SOL    HW154361   4.636   5.836   8.881  0.8256 -0.2728 -1.4119
17640SOL    HW254362   4.762   5.875   8.956 -0.8734 -1.4372  2.2858
17641SOL     OW54363   6.952   3.999   8.390 -0.4378 -0.3771  0.6719
17641SOL    HW154364   6.950   4.093   8.406 -0.8606 -0.3741  0.6127
17641SOL    HW254365   7.014   3.965   8.454 -0.7728 -0.1388  1.1236
17642SOL     OW54366   7.241   0.896   5.521  0.2613  0.1861  0.3622
17642SOL    HW154367   7.212   0.986   5.507 -1.6311 -0.4566 -0.1445
17642SOL    HW254368   7.245   0.858   5.434 -0.2138 -0.5847  0.6695
17643SOL     OW54369   3.226   6.642   2.923 -0.1881  0.9800  0.5489
17643SOL    HW154370   3.133   6.661   2.926  0.0158  1.9141  1.1520
17643SOL    HW254371   3.231   6.546   2.928 -1.0858  0.9546  1.1251
17644SOL     OW54372   0.625   5.826   1.768  0.0077  0.2219  0.4602
17644SOL    HW154373   0.563   5.855   1.701 -0.7341 -0.5246  0.8071
17644SOL    HW254374   0.677   5.758   1.725  0.3735  0.6180  0.2695
17645SOL     OW54375   0.655   1.830   2.926 -0.3809 -0.8462  0.0167
17645SOL    HW154376   0.656   1.737   2.947 -2.0759 -0.7915  0.4932
17645SOL    HW254377   0.597   1.837   2.850  0.0993 -0.2278 -0.3050
17646SOL     OW54378   2.506   1.395   1.544  0.0584 -0.2895 -0.1713
17646SOL    HW154379   2.513   1.329   1.474 -1.6219 -0.4699 -0.2054
17646SOL    HW254380   2.425   1.373   1.590 -0.9791  2.1824 -0.6489
17647SOL     OW54381   5.478   1.756   8.819 -0.0012 -0.0678  0.0602
17647SOL    HW154382   5.480   1.847   8.850  0.6336 -0.4784  1.2974
17647SOL    HW254383   5.418   1.711   8.878 -1.6808 -0.1301 -1.6085
17648SOL     OW54384   0.290   2.936   2.476  0.0244  0.2878  0.4640
17648SOL    HW154385   0.257   2.868   2.417 -2.0948 -0.1038  1.9450
17648SOL    HW254386   0.303   3.013   2.420 -1.2136 -0.2662 -0.6467
17649SOL     OW54387   6.223   4.710   2.027 -0.0650 -0.0424  0.4391
17649SOL    HW154388   6.190   4.696   2.116 -1.8598  0.8436 -0.0317
17649SOL    HW254389   6.287   4.641   2.014 -0.8604 -1.1208  1.8998
17650SOL     OW54390   3.171   3.793  11.634 -0.0202 -0.3339  0.7097
17650SOL    HW154391   3.175   3.708  11.591 -0.2746 -0.0167  0.0482
17650SOL    HW254392   3.260   3.829  11.624  0.4490 -1.0397  2.0923
17651SOL     OW54393   4.759   4.661   1.294  0.3244 -0.0417  0.3749
17651SOL    HW154394   4.669   4.638   1.315  0.7377 -0.7492  1.4964
17651SOL    HW254395   4.766   4.755   1.312  0.2126 -0.2987  1.8827
17652SOL     OW54396   7.630   5.610   5.974 -0.2149  0.1606 -0.0316
17652SOL    HW154397   7.556   5.577   6.025 -0.5756 -0.9596 -1.2492
17652SOL    HW254398   7.597   5.617   5.885  0.8828  0.5556 -0.4213
17653SOL     OW54399   4.185   6.195  11.236  0.2177  0.4426  0.5452
17653SOL    HW154400   4.128   6.132  11.193  1.4309  0.1241 -0.6729
17653SOL    HW254401   4.164   6.188  11.329 -1.1732 -0.1940  0.1972
17654SOL     OW54402   1.975   4.655   1.901  0.0436  0.1287 -0.4990
17654SOL    HW154403   2.069   4.653   1.883  0.0512 -0.8202 -0.3960
17654SOL    HW254404   1.954   4.748   1.911  0.9770  0.3420 -0.4753
17655SOL     OW54405   4.705   1.425   7.516  0.1545 -0.5551 -0.5300
17655SOL    HW154406   4.694   1.359   7.448 -1.4857 -0.9923  0.1043
17655SOL    HW254407   4.620   1.428   7.561  1.0895 -0.0898  1.3183
17656SOL     OW54408   0.437   3.501   6.107 -0.0798  0.3769 -0.0398
17656SOL    HW154409   0.482   3.493   6.191  1.5454  0.4231 -0.8757
17656SOL    HW254410   0.415   3.594   6.101  0.5910  0.5370 -0.0520
17657SOL     OW54411   4.207   1.488   1.438 -0.3300  0.1321 -0.2975
17657SOL    HW154412   4.115   1.491   1.464  0.2447  0.4072  1.9464
17657SOL    HW254413   4.244   1.417   1.491  0.3086 -1.6810 -2.9450
17658SOL     OW54414   5.741   4.365   2.703 -0.3919  0.3114  0.1095
17658SOL    HW154415   5.675   4.316   2.752 -0.4239 -0.7610 -0.9592
17658SOL    HW254416   5.720   4.348   2.611  2.5431 -1.7704 -0.3097
17659SOL     OW54417   6.430   5.193  12.365  0.1118 -0.3717 -0.4597
17659SOL    HW154418   6.426   5.109  12.319  3.2775 -0.6936 -0.3924
17659SOL    HW254419   6.514   5.191  12.410 -0.2640  2.3665  0.5365
17660SOL     OW54420   0.047   6.115   8.151 -0.1335 -0.4552  0.4550
17660SOL    HW154421   0.059   6.144   8.241  4.1331  0.4375 -0.1856
17660SOL    HW254422  -0.023   6.170   8.117 -0.7302  0.2930  2.7296
17661SOL     OW54423   7.142   6.950   3.817 -0.0724  0.3918 -0.4230
17661SOL    HW154424   7.203   6.995   3.759  1.1463  1.5521  1.6363
17661SOL    HW254425   7.056   6.963   3.777  0.3752  3.4862 -0.5866
17662SOL     OW54426   5.866   5.056   7.302  0.8226  0.2843 -0.3333
17662SOL    HW154427   5.926   5.057   7.228  0.3110 -0.6739 -0.7808
17662SOL    HW254428   5.923   5.051   7.379  1.3676 -2.3216 -0.7947
17663SOL     OW54429   5.968   7.944   4.836 -0.0971  0.1370 -0.0603
17663SOL    HW154430   5.941   8.023   4.882  0.2452  1.5050 -2.1168
17663SOL    HW254431   6.001   7.974   4.752  2.3925 -1.9695  0.0354
17664SOL     OW54432   1.703   3.487   5.990  0.3870 -0.0038 -0.0389
17664SOL    HW154433   1.646   3.562   5.974  0.2732 -0.0561  0.1164
17664SOL    HW254434   1.655   3.433   6.054 -0.5469 -1.3346 -1.7624
17665SOL     OW54435   7.033   1.125  12.267  0.4197  0.0416  0.3225
17665SOL    HW154436   7.099   1.165  12.210  0.6265 -1.2285 -0.3832
17665SOL    HW254437   7.083   1.070  12.327  0.0542 -0.4687  0.1700
17666SOL     OW54438   1.599   2.346   8.836 -0.2428 -0.3525  0.5077
17666SOL    HW154439   1.565   2.314   8.752 -0.4696  0.7660  0.1632
17666SOL    HW254440   1.693   2.328   8.832 -0.0235  0.9035 -0.5608
17667SOL     OW54441   6.448   1.792  10.709 -0.1161  0.0531  0.4632
17667SOL    HW154442   6.509   1.819  10.778 -0.9888  1.2483  0.7824
17667SOL    HW254443   6.501   1.736  10.651  1.2503  0.9571  0.8015
17668SOL     OW54444   3.658   3.203   1.991 -0.1920 -0.0621  0.6172
17668SOL    HW154445   3.670   3.166   2.079 -0.3806  2.1835  1.6716
17668SOL    HW254446   3.573   3.171   1.962  0.0110 -1.0838  1.0906
17669SOL     OW54447   6.223   2.331   4.212  0.0077  0.0838 -0.5698
17669SOL    HW154448   6.229   2.249   4.261 -0.6489 -0.3102 -1.1433
17669SOL    HW254449   6.189   2.394   4.275  0.8141  0.0001 -0.0363
17670SOL     OW54450   0.114   6.805  12.284  0.2890  0.1264 -0.2357
17670SOL    HW154451   0.189   6.785  12.228  0.4685  0.3888 -0.0905
17670SOL    HW254452   0.114   6.734  12.349 -0.5199 -0.7459 -1.1550
17671SOL     OW54453   0.296   3.899   4.601 -0.1410 -0.7327 -0.5033
17671SOL    HW154454   0.349   3.929   4.675 -1.0858 -0.6048  0.1510
17671SOL    HW254455   0.249   3.822   4.635 -0.0532 -1.0978 -1.1962
17672SOL     OW54456   3.099   2.117   5.412  0.1436 -0.5362 -0.1214
17672SOL    HW154457   3.054   2.077   5.487 -0.6727 -0.8086 -0.7422
17672SOL    HW254458   3.041   2.188   5.384 -0.0916 -1.1134 -1.1528
17673SOL     OW54459   7.094   6.723   9.448  0.4839 -0.0147  0.3667
17673SOL    HW154460   7.150   6.750   9.375 -2.0132  0.5518 -1.4736
17673SOL    HW254461   7.097   6.797   9.509 -0.7201  1.4731 -1.2643
17674SOL     OW54462   1.630   3.440   2.655  0.4709  0.5303 -0.0518
17674SOL    HW154463   1.569   3.490   2.601 -0.5636 -0.8399 -0.1988
17674SOL    HW254464   1.685   3.393   2.592  0.4074  0.2791  0.0775
17675SOL     OW54465   7.135   5.000   2.370  0.2990 -0.0447 -0.0403
17675SOL    HW154466   7.131   5.058   2.446  0.1044  0.1354 -0.1870
17675SOL    HW254467   7.081   4.925   2.394  0.0999  0.0892 -0.0640
17676SOL     OW54468   6.617   7.547   8.394 -0.2517  0.2822 -0.3109
17676SOL    HW154469   6.690   7.584   8.344 -0.3685  2.5386  1.0465
17676SOL    HW254470   6.582   7.621   8.444 -2.1132 -1.2009  0.7208
17677SOL     OW54471   1.594   1.348  11.717 -0.2160  0.3017  0.1616
17677SOL    HW154472   1.523   1.404  11.748 -1.0630  0.0519 -1.2605
17677SOL    HW254473   1.560   1.308  11.637  0.3287 -2.3083  1.1337
17678SOL     OW54474   7.019   6.774   4.295 -0.0755 -0.1305  0.4172
17678SOL    HW154475   6.927   6.760   4.314 -0.0362 -1.5691 -0.2963
17678SOL    HW254476   7.020   6.807   4.205 -0.0151  2.5755  1.3187
17679SOL     OW54477   1.256   2.147   1.349  0.4869  0.4160 -0.0882
17679SOL    HW154478   1.185   2.090   1.377  1.1711 -0.3698  0.0847
17679SOL    HW254479   1.321   2.088   1.311  1.2990  1.0563  0.2833
17680SOL     OW54480   4.029   4.646   4.734  0.4782  0.1306 -0.1929
17680SOL    HW154481   4.086   4.681   4.803  0.0683  0.8254 -0.1986
17680SOL    HW254482   3.945   4.632   4.777  0.4469 -0.2149 -0.3603
17681SOL     OW54483   0.343   0.162   7.418 -0.5912  0.1794 -0.0483
17681SOL    HW154484   0.379   0.238   7.464 -1.4642 -0.1062  1.1501
17681SOL    HW254485   0.251   0.183   7.405 -1.0443 -0.9811  1.0391
17682SOL     OW54486   1.209   2.153   2.189  0.1699  0.4422  0.3343
17682SOL    HW154487   1.144   2.220   2.170  0.2285  0.5912  0.6510
17682SOL    HW254488   1.271   2.159   2.116 -0.0673  0.4253  0.1289
17683SOL     OW54489   1.214   6.481   8.637  0.2025 -0.1605  0.2894
17683SOL    HW154490   1.154   6.554   8.632 -1.5723 -1.6161 -0.9565
17683SOL    HW254491   1.259   6.481   8.552  0.0498 -0.6145  0.2042
17684SOL     OW54492   1.935   1.378   0.287 -0.6271 -0.0704  0.6401
17684SOL    HW154493   1.926   1.428   0.368 -2.5801  1.1975 -0.2978
17684SOL    HW254494   1.918   1.441   0.217 -1.1351 -1.6006 -0.6810
17685SOL     OW54495   2.270   1.340   6.042 -0.2149  0.4029 -0.6787
17685SOL    HW154496   2.290   1.347   5.948 -0.4968  0.4715 -0.7342
17685SOL    HW254497   2.203   1.407   6.057 -0.4258  0.1538 -0.5023
17686SOL     OW54498   2.392   5.097   2.764  0.4923 -0.5127 -0.5491
17686SOL    HW154499   2.322   5.069   2.823 -1.3064  0.3149 -2.1493
17686SOL    HW254500   2.442   5.017   2.745 -0.5906 -1.3271 -0.0665
17687SOL     OW54501   2.630   0.854   5.871  0.5834  0.8341  0.0192
17687SOL    HW154502   2.667   0.869   5.784  1.4238 -2.8162 -0.4440
17687SOL    HW254503   2.704   0.858   5.930  1.1745 -2.2741 -0.3349
17688SOL     OW54504   6.321   2.632   3.040 -0.0877 -0.1390 -0.0025
17688SOL    HW154505   6.289   2.715   3.075 -0.5652 -0.4973  0.4232
17688SOL    HW254506   6.272   2.565   3.088 -0.4072 -0.6584 -1.0239
17689SOL     OW54507   0.514   3.756   5.821  0.5327 -0.0176  0.2844
17689SOL    HW154508   0.482   3.755   5.911  1.5772  1.0393  0.6975
17689SOL    HW254509   0.569   3.834   5.816 -0.5915  0.7360 -1.6582
17690SOL     OW54510   0.270   3.173  10.914  0.4332  0.1999 -0.1606
17690SOL    HW154511   0.334   3.225  10.865  1.2509  1.2441  1.8720
17690SOL    HW254512   0.246   3.230  10.988 -1.3317 -0.9752  0.2130
17691SOL     OW54513   2.103   3.223   6.512  0.2390 -0.3050 -0.4881
17691SOL    HW154514   2.062   3.137   6.501 -0.0030 -0.5743  1.8798
17691SOL    HW254515   2.062   3.259   6.591  3.4507  0.0440  1.2019
17692SOL     OW54516   3.161   2.828   8.818  0.0923 -0.1489 -0.6656
17692SOL    HW154517   3.068   2.837   8.796 -0.0434  0.3565  0.0760
17692SOL    HW254518   3.176   2.894   8.886  0.8697 -0.5936 -0.3943
17693SOL     OW54519   6.725   0.674   9.265 -0.4071  0.4981 -0.1029
17693SOL    HW154520   6.721   0.639   9.354 -0.2316  1.8499  0.4567
17693SOL    HW254521   6.669   0.615   9.214 -0.5136 -0.2991  0.8931
17694SOL     OW54522   5.324   4.619  10.774  0.1790  0.4522  1.0202
17694SOL    HW154523   5.413   4.620  10.810  1.5907  1.4135 -2.1586
17694SOL    HW254524   5.333   4.657  10.687 -3.2085 -0.3802  0.1704
17695SOL     OW54525   7.507   3.318   0.046  0.4040  0.4299 -0.2140
17695SOL    HW154526   7.548   3.388  -0.005  2.9792 -0.1718  0.8660
17695SOL    HW254527   7.508   3.242  -0.012 -0.0478  0.6346 -0.4980
17696SOL     OW54528   7.090   5.105   6.551  0.0556 -0.0527  0.3287
17696SOL    HW154529   7.158   5.111   6.484 -0.6151 -0.5065 -0.4048
17696SOL    HW254530   7.134   5.130   6.632  1.0322 -0.0850 -0.1795
17697SOL     OW54531   0.553   2.583   4.226  0.4886 -0.0220 -0.3625
17697SOL    HW154532   0.584   2.495   4.202 -1.0600 -0.2816 -1.5580
17697SOL    HW254533   0.531   2.575   4.318  0.9264 -0.7185 -0.3023
17698SOL     OW54534   6.075   7.793   9.823 -0.0592  0.2341  0.2250
17698SOL    HW154535   6.091   7.709   9.780 -0.9856  1.7518 -3.5706
17698SOL    HW254536   6.161   7.834   9.828  0.1635 -0.2573  0.4998
17699SOL     OW54537   1.213   6.352  10.560  0.2169 -0.0886 -0.3438
17699SOL    HW154538   1.126   6.366  10.597 -0.4580 -1.3506 -1.3843
17699SOL    HW254539   1.266   6.323  10.634  0.0571  1.6626  0.5183
17700SOL     OW54540   6.429   4.658   0.925 -0.1104  0.1959  0.3336
17700SOL    HW154541   6.469   4.573   0.941  3.1976  1.5573  0.2603
17700SOL    HW254542   6.401   4.688   1.011 -1.0510 -0.7915  0.3971
17701SOL     OW54543   5.086   7.432   4.577 -0.2231  0.2220 -0.1805
17701SOL    HW154544   5.162   7.464   4.530  1.4646  1.3851  3.0627
17701SOL    HW254545   5.094   7.336   4.572  1.5701  0.3127  0.1940
17702SOL     OW54546   3.548   7.162   0.995  0.5565 -0.3729  0.2299
17702SOL    HW154547   3.562   7.213   0.915  0.0667 -1.3269 -0.4786
17702SOL    HW254548   3.537   7.229   1.063  0.2158  0.4720 -0.6238
17703SOL     OW54549   2.093   5.170   2.730  0.1164  0.2138 -0.2761
17703SOL    HW154550   2.187   5.191   2.725 -0.3335  2.3738 -0.5229
17703SOL    HW254551   2.086   5.109   2.803  1.5647  1.0611  0.6135
17704SOL     OW54552   3.684   1.097  10.224  0.2783  0.2956  0.0745
17704SOL    HW154553   3.706   1.129  10.311  0.7877  1.1349 -0.3448
17704SOL    HW254554   3.751   1.136  10.167  0.8285 -1.3838 -0.5027
17705SOL     OW54555   3.963   2.579   7.531  0.5074 -0.3780  0.2493
17705SOL    HW154556   3.944   2.575   7.437 -0.2112 -0.0031  0.3699
17705SOL    HW254557   3.906   2.513   7.570  0.6484 -0.3857  0.4443
17706SOL     OW54558   6.120   7.668   1.961 -0.3058  0.5121 -0.3221
17706SOL    HW154559   6.121   7.727   2.036  0.6175  0.3611 -0.2092
17706SOL    HW254560   6.212   7.647   1.945 -0.6204 -1.0109 -0.2658
17707SOL     OW54561   3.251   6.298  11.202  0.1182 -0.4049  0.5450
17707SOL    HW154562   3.212   6.215  11.173 -0.0306 -0.2586  0.3158
17707SOL    HW254563   3.179   6.345  11.245 -0.0349 -0.0299 -0.0974
17708SOL     OW54564   2.791   4.785   5.318  0.0698 -0.1550  0.0723
17708SOL    HW154565   2.858   4.772   5.252 -0.3528 -2.5335  0.0284
17708SOL    HW254566   2.714   4.739   5.285 -1.2095  1.3802  0.7316
17709SOL     OW54567   5.801   1.721   9.612 -0.5768  0.2604  0.0067
17709SOL    HW154568   5.794   1.651   9.547 -2.7342 -0.2639  0.7099
17709SOL    HW254569   5.712   1.734   9.643  0.2879  0.9038  2.4541
17710SOL     OW54570   0.745   1.466  11.031 -0.1086 -0.7152  0.0761
17710SOL    HW154571   0.807   1.489  10.961  1.4971 -1.1422  1.2848
17710SOL    HW254572   0.743   1.370  11.031 -0.6675 -0.7074  0.1573
17711SOL     OW54573   0.163   5.133   2.864 -0.2204 -0.0827  0.4772
17711SOL    HW154574   0.182   5.169   2.951  0.0746 -0.0396  0.3989
17711SOL    HW254575   0.069   5.145   2.853 -0.1320  0.6434  0.4676
17712SOL     OW54576   5.975   4.545  11.696 -0.1402  0.2077 -0.3448
17712SOL    HW154577   5.884   4.562  11.672 -0.3852 -1.9025 -1.0999
17712SOL    HW254578   5.970   4.498  11.779  0.1097 -1.5791 -1.3025
17713SOL     OW54579   6.105   5.602   8.936 -0.2835  0.0569  0.3981
17713SOL    HW154580   6.170   5.668   8.913  0.4712 -0.9480 -0.5181
17713SOL    HW254581   6.061   5.582   8.853 -0.0648 -1.0194  0.5185
17714SOL     OW54582   0.948   4.855   1.040 -0.1640  0.1210  0.9185
17714SOL    HW154583   0.931   4.872   0.947 -2.5088  0.1224  1.2985
17714SOL    HW254584   0.967   4.761   1.044  0.8112  0.2679  0.3766
17715SOL     OW54585   5.177   1.716   3.547 -0.1310  0.2206  0.0918
17715SOL    HW154586   5.123   1.653   3.595  0.8526  0.0395  0.9934
17715SOL    HW254587   5.114   1.774   3.505 -1.0474 -0.8168 -0.0209
17716SOL     OW54588   5.063   2.546  12.060 -0.3458  0.1474 -0.3081
17716SOL    HW154589   5.020   2.603  11.995 -1.7212  0.1787  0.5908
17716SOL    HW254590   4.993   2.491  12.093  0.8144 -1.5306 -0.5398
17717SOL     OW54591   5.392   5.962   9.710  0.2463 -0.3979 -0.2932
17717SOL    HW154592   5.474   5.928   9.745  0.8347 -0.0095 -1.2578
17717SOL    HW254593   5.403   6.057   9.711 -0.3477 -0.3256 -0.0782
17718SOL     OW54594   0.995   4.185   6.986  0.3464  0.3699  0.8069
17718SOL    HW154595   0.941   4.192   6.907 -0.2090 -0.0005  1.1479
17718SOL    HW254596   1.068   4.128   6.960  0.9350  1.3952  0.1571
17719SOL     OW54597   3.635   5.006   2.279 -0.3960 -0.1255 -0.7074
17719SOL    HW154598   3.609   4.953   2.203 -0.2882 -0.8679 -0.2411
17719SOL    HW254599   3.617   4.950   2.354  0.9631 -0.0086 -0.2736
17720SOL     OW54600   1.217   0.291   5.426  0.4643 -0.4208 -0.1534
17720SOL    HW154601   1.168   0.323   5.502  3.3672 -1.6988  2.4902
17720SOL    HW254602   1.216   0.195   5.435  1.6562 -0.5600 -1.1576
17721SOL     OW54603   7.362   0.880  12.085  0.3481 -0.2725  0.0035
17721SOL    HW154604   7.368   0.785  12.090  1.3865 -0.2134  0.2177
17721SOL    HW254605   7.410   0.912  12.162 -0.9321  0.4200  0.5365
17722SOL     OW54606   5.293   4.236   0.639 -0.3783  0.0231  0.1973
17722SOL    HW154607   5.226   4.302   0.622  0.1622  0.3379 -0.7896
17722SOL    HW254608   5.249   4.169   0.690 -1.1625  0.7368  0.4813
17723SOL     OW54609   7.126   4.842   1.158  0.1535 -0.4257 -0.3337
17723SOL    HW154610   7.220   4.833   1.170  0.1478  0.2871  0.3362
17723SOL    HW254611   7.116   4.862   1.064  0.5777 -1.4639 -0.6124
17724SOL     OW54612   7.166   0.678   8.020 -0.1095  0.4508  0.5186
17724SOL    HW154613   7.083   0.698   7.976 -1.8482  0.3367  3.4325
17724SOL    HW254614   7.196   0.762   8.054  1.1627  0.5330 -0.7448
17725SOL     OW54615   1.014   5.119   5.591  0.0166  0.2159 -0.5374
17725SOL    HW154616   0.950   5.190   5.584 -0.2594  0.0373  0.1659
17725SOL    HW254617   1.014   5.095   5.683 -0.0161 -0.8111 -0.7851
17726SOL     OW54618   1.176   5.599   6.313  0.5815  0.1563  0.0777
17726SOL    HW154619   1.168   5.693   6.327  0.8843  0.2085 -0.0963
17726SOL    HW254620   1.175   5.561   6.401 -1.0461  0.1933  0.1074
17727SOL     OW54621   1.372   3.724   9.199 -0.4222  0.4899  0.0808
17727SOL    HW154622   1.296   3.718   9.142 -0.8128  0.7825  0.5571
17727SOL    HW254623   1.430   3.653   9.170 -1.3184 -0.3857  0.3571
17728SOL     OW54624   5.941   4.677   9.914  0.4323 -0.2561  0.0435
17728SOL    HW154625   5.959   4.608   9.978  1.7435 -1.4911 -1.5446
17728SOL    HW254626   6.004   4.746   9.935  0.4800 -0.4181  0.4394
17729SOL     OW54627   7.570   4.720   5.429 -0.3685  0.6206  0.1890
17729SOL    HW154628   7.658   4.730   5.395 -0.4297 -0.3542 -0.2861
17729SOL    HW254629   7.515   4.771   5.370 -0.3632 -0.3861 -0.7297
17730SOL     OW54630   2.542   2.767   9.553 -0.8600  0.3726  0.0431
17730SOL    HW154631   2.580   2.685   9.520 -0.4122 -0.1248  1.7079
17730SOL    HW254632   2.597   2.790   9.628 -2.2002  1.1267  0.8215
17731SOL     OW54633   4.809   1.577   9.605 -0.0823 -0.3514  0.0735
17731SOL    HW154634   4.824   1.651   9.546 -2.2186  0.0812 -0.0002
17731SOL    HW254635   4.883   1.580   9.666  0.6724  0.9211 -0.8488
17732SOL     OW54636   4.973   1.573   4.589  0.2035  0.3295  0.3564
17732SOL    HW154637   4.976   1.622   4.507  1.2354 -1.6747 -0.8828
17732SOL    HW254638   5.066   1.558   4.611 -0.0804 -1.3541  0.4965
17733SOL     OW54639   4.111   6.816   4.268  0.5861 -0.5264  0.0804
17733SOL    HW154640   4.075   6.728   4.271  0.1788 -0.3541  0.2753
17733SOL    HW254641   4.203   6.806   4.293  0.3417 -0.7869  0.8942
17734SOL     OW54642   0.776   5.927   2.751 -0.1755 -0.1759 -0.0811
17734SOL    HW154643   0.686   5.895   2.763  0.2286 -0.9953  0.8413
17734SOL    HW254644   0.765   6.019   2.726 -1.2816 -0.3643 -0.3670
17735SOL     OW54645   1.559   5.918   8.995  0.7044 -0.2431 -0.6234
17735SOL    HW154646   1.489   5.974   8.962  0.5900  1.0515  1.6525
17735SOL    HW254647   1.515   5.855   9.052  1.2178 -0.4483 -0.4461
17736SOL     OW54648   1.006   5.170  11.803 -0.5475  0.7956  0.2200
17736SOL    HW154649   1.087   5.197  11.758 -0.1382 -0.1470  0.3558
17736SOL    HW254650   1.023   5.079  11.829 -0.9157  1.1998  1.9674
17737SOL     OW54651   3.279   6.521   7.627 -0.0204  0.4944  0.0189
17737SOL    HW154652   3.362   6.474   7.634 -0.3570  0.0465  1.0770
17737SOL    HW254653   3.305   6.612   7.611  0.6427  0.1254 -1.1047
17738SOL     OW54654   3.925   6.704   0.480  0.1594  0.1864 -0.3831
17738SOL    HW154655   4.019   6.689   0.466  0.4655  1.0980  0.5885
17738SOL    HW254656   3.916   6.714   0.575 -1.1497 -1.2835 -0.3097
17739SOL     OW54657   2.347   1.664   4.825  0.0780  0.1046  0.0156
17739SOL    HW154658   2.378   1.629   4.742  1.9759  2.2351 -0.2766
17739SOL    HW254659   2.423   1.657   4.884 -1.1398 -1.1146  1.5591
17740SOL     OW54660   6.043   2.103   1.462 -0.1404 -0.0576 -0.5127
17740SOL    HW154661   6.098   2.133   1.535  0.5850 -1.6875 -0.3383
17740SOL    HW254662   6.028   2.182   1.410 -0.3470  1.0640  1.1732
17741SOL     OW54663   1.599   3.229   9.382  0.8176 -0.0735 -0.3766
17741SOL    HW154664   1.668   3.274   9.335  0.9182  1.2092  0.9244
17741SOL    HW254665   1.609   3.137   9.358 -0.0892  0.6353 -4.0086
17742SOL     OW54666   2.700   4.158   2.553  0.1740  0.7688 -0.2275
17742SOL    HW154667   2.722   4.119   2.637  3.2351  1.8261 -0.3953
17742SOL    HW254668   2.658   4.087   2.504 -1.3651  0.0354  2.0141
17743SOL     OW54669   4.550   3.274   0.727  0.3156 -0.2055  0.0088
17743SOL    HW154670   4.543   3.181   0.707  3.1540 -0.2669 -1.2052
17743SOL    HW254671   4.608   3.278   0.803  1.8673  0.5761 -1.1618
17744SOL     OW54672   7.654   1.943   1.446  0.0820  0.2803  0.1086
17744SOL    HW154673   7.648   1.964   1.540  0.8390 -1.8460  0.7010
17744SOL    HW254674   7.697   1.858   1.444  1.5607  0.9811 -2.2718
17745SOL     OW54675   2.252   5.121   4.559  0.5426  0.8974 -0.4752
17745SOL    HW154676   2.168   5.121   4.514  0.8164  1.1757 -1.0092
17745SOL    HW254677   2.298   5.045   4.523  1.6342  2.3818 -2.4016
17746SOL     OW54678   0.771   1.187   3.766 -0.2908 -0.5549  0.4407
17746SOL    HW154679   0.756   1.269   3.813 -1.1218 -1.0237  1.0299
17746SOL    HW254680   0.861   1.162   3.789 -0.6191 -0.6839  1.6617
17747SOL     OW54681   6.917   5.163   6.855 -0.1847  0.3273 -0.3240
17747SOL    HW154682   7.006   5.194   6.839  0.7131 -0.9724  1.7454
17747SOL    HW254683   6.875   5.233   6.904 -0.5736  1.2389 -1.9017
17748SOL     OW54684   5.382   3.185   6.513  0.1490 -0.8148 -0.1291
17748SOL    HW154685   5.394   3.272   6.475 -0.7462 -1.2455 -1.4849
17748SOL    HW254686   5.442   3.182   6.587 -1.8636  2.0689  1.8683
17749SOL     OW54687   0.160   4.204   0.352 -0.3119 -0.4002  0.3208
17749SOL    HW154688   0.195   4.256   0.280 -0.2059 -1.2706 -0.2635
17749SOL    HW254689   0.097   4.262   0.395 -0.6594 -0.0074 -0.7018
17750SOL     OW54690   0.844   2.528  10.971  0.9670  0.4564  0.5604
17750SOL    HW154691   0.765   2.563  11.012  0.9034 -0.1538  0.9618
17750SOL    HW254692   0.844   2.567  10.883 -1.3296 -1.7184 -0.5247
17751SOL     OW54693   3.349   3.898   0.143  0.3471 -0.2972  0.2147
17751SOL    HW154694   3.439   3.904   0.110  1.3876  3.2696  3.0440
17751SOL    HW254695   3.343   3.968   0.208 -3.8721 -1.8054  1.7531
17752SOL     OW54696   2.878   6.712   5.235  0.1485 -0.4200  0.1783
17752SOL    HW154697   2.852   6.639   5.292 -0.8501 -1.1981 -1.2134
17752SOL    HW254698   2.956   6.680   5.190  0.0807 -0.3883  0.0374
17753SOL     OW54699   5.038   4.185   4.595 -0.3642  0.0109  0.1825
17753SOL    HW154700   5.130   4.181   4.620 -0.6153  0.9597  1.3510
17753SOL    HW254701   5.039   4.220   4.506  0.3960  0.1911  0.2539
17754SOL     OW54702   7.611   1.623   3.002  0.2230 -0.3155 -0.0725
17754SOL    HW154703   7.635   1.607   3.093  1.4011  0.9283 -0.1215
17754SOL    HW254704   7.629   1.716   2.989 -0.8249 -0.2583 -1.3254
17755SOL     OW54705   0.042   0.194   5.747  0.1990 -0.2942  0.8009
17755SOL    HW154706   0.121   0.245   5.734 -0.5470  0.5951 -0.4790
17755SOL    HW254707  -0.030   0.254   5.726 -0.7535 -1.5194  0.3750
17756SOL     OW54708   2.435   1.261   4.134 -0.1672 -0.3212  0.4233
17756SOL    HW154709   2.404   1.281   4.046 -0.1038 -1.1861  0.1890
17756SOL    HW254710   2.493   1.186   4.122  0.8119  0.3271  1.0581
17757SOL     OW54711   4.444   3.713   0.182 -0.1783  0.4925 -0.5143
17757SOL    HW154712   4.446   3.697   0.087  1.3357  0.3534 -0.4716
17757SOL    HW254713   4.444   3.808   0.190  0.3151  0.5024 -0.6416
17758SOL     OW54714   3.376   0.100   9.323  0.1913  0.4532  0.1354
17758SOL    HW154715   3.389   0.131   9.413  0.4535 -0.3973  0.3974
17758SOL    HW254716   3.298   0.044   9.328  1.8063 -1.9144  0.4489
17759SOL     OW54717   1.125   1.465  11.293  0.0000  0.2505 -0.2628
17759SOL    HW154718   1.132   1.545  11.344 -0.1750  0.9252 -1.2572
17759SOL    HW254719   1.169   1.399  11.346 -1.7497  0.4748  1.5902
17760SOL     OW54720   1.018   4.333   3.571  0.3020 -0.0811  0.0494
17760SOL    HW154721   1.084   4.348   3.639  1.0935 -0.2738 -0.6594
17760SOL    HW254722   1.069   4.317   3.492 -0.6061  0.0042 -0.5645
17761SOL     OW54723   3.792   0.680   7.494 -0.4097 -0.4365  0.8588
17761SOL    HW154724   3.839   0.749   7.542  1.2008 -0.8914 -0.0063
17761SOL    HW254725   3.795   0.605   7.553  1.0825 -0.8314  0.3123
17762SOL     OW54726   7.207   0.786   3.220  0.3550 -0.3066  0.2216
17762SOL    HW154727   7.239   0.725   3.287  0.7139 -0.9970 -0.5663
17762SOL    HW254728   7.281   0.796   3.160  0.5963  1.5695  0.7820
17763SOL     OW54729   1.918   7.163   8.839  0.2823  0.0684 -0.2998
17763SOL    HW154730   1.827   7.188   8.855 -0.2843 -2.4699  1.0629
17763SOL    HW254731   1.929   7.175   8.745 -1.2629  1.0097 -0.4088
17764SOL     OW54732   2.925   5.287   0.909  0.6361  0.4969  0.4099
17764SOL    HW154733   2.855   5.351   0.898 -0.5067 -0.6902  0.5157
17764SOL    HW254734   2.884   5.203   0.889  2.2762 -0.1537 -0.4523
17765SOL     OW54735   1.422   6.054   5.326 -0.1208  0.2873 -0.4245
17765SOL    HW154736   1.466   6.105   5.394  0.7722  0.3465 -1.0320
17765SOL    HW254737   1.332   6.088   5.324  0.0549  0.8052  0.1851
17766SOL     OW54738   4.895   4.980   7.809  0.1779  0.1917 -0.7725
17766SOL    HW154739   4.881   5.027   7.726  1.1784  2.9684  0.5035
17766SOL    HW254740   4.828   5.016   7.868  1.4292  0.6023  0.4504
17767SOL     OW54741   6.632   5.183  10.384  0.2377  0.0449  0.3881
17767SOL    HW154742   6.701   5.201  10.319 -1.4658  1.0861 -1.2371
17767SOL    HW254743   6.674   5.126  10.448  2.5345  0.4367 -0.6644
17768SOL     OW54744   0.838   2.819   1.186 -0.0000  0.1184 -0.3739
17768SOL    HW154745   0.812   2.791   1.274  0.4366  2.2328  0.5039
17768SOL    HW254746   0.896   2.894   1.201 -0.8609  1.2995 -2.4947
17769SOL     OW54747   7.858   7.414  10.361 -0.4747  0.0798 -0.1806
17769SOL    HW154748   7.908   7.458  10.430 -0.7552 -0.6129  0.4934
17769SOL    HW254749   7.888   7.454  10.280  1.0006 -0.1471  0.2166
17770SOL     OW54750   4.656   2.726   2.924 -0.6023  0.3241 -0.0941
17770SOL    HW154751   4.742   2.760   2.897 -0.5305  0.2862  0.0829
17770SOL    HW254752   4.643   2.762   3.012  0.1613 -1.3050  0.7363
17771SOL     OW54753   5.308   1.350   1.793  0.3617  0.3388 -0.1790
17771SOL    HW154754   5.258   1.351   1.711  2.0673  1.9404 -1.2924
17771SOL    HW254755   5.277   1.426   1.841 -0.7931 -0.7276  0.7941
17772SOL     OW54756   4.168   2.484   5.020 -0.1797  0.0299 -0.3114
17772SOL    HW154757   4.162   2.579   5.015  3.7782  0.4323 -0.8889
17772SOL    HW254758   4.209   2.458   4.937  2.7609 -1.5819  1.4843
17773SOL     OW54759   4.404   6.305  11.163  0.0820  0.6875 -0.1288
17773SOL    HW154760   4.445   6.261  11.088  0.9184  2.2593 -0.6512
17773SOL    HW254761   4.320   6.261  11.174  0.3985 -0.2727 -1.3329
17774SOL     OW54762   7.096   3.665   4.733  0.4853 -0.0972 -0.7662
17774SOL    HW154763   7.171   3.637   4.680 -0.0139  0.6162 -1.8982
17774SOL    HW254764   7.054   3.733   4.681  0.2144  0.9559  0.7703
17775SOL     OW54765   2.198   3.754   2.258  0.3602  0.3367  0.0460
17775SOL    HW154766   2.118   3.807   2.249  0.7623  0.9092 -0.2393
17775SOL    HW254767   2.243   3.792   2.333  1.2269  1.1866 -0.8719
17776SOL     OW54768   5.344   1.241   8.856  0.4780 -0.3201 -0.4203
17776SOL    HW154769   5.365   1.154   8.891  1.3079  0.8571  2.2705
17776SOL    HW254770   5.386   1.302   8.917 -2.5841  2.0419 -0.4517
17777SOL     OW54771   5.769   1.426   6.452  0.0674  0.3510  0.3328
17777SOL    HW154772   5.792   1.440   6.544 -0.8258 -0.9786  0.7919
17777SOL    HW254773   5.820   1.491   6.405 -0.1633  1.7109  1.8401
17778SOL     OW54774   2.104   1.105   2.093  0.0392  0.5116 -0.6213
17778SOL    HW154775   2.171   1.171   2.109  0.1626  0.1631  0.3776
17778SOL    HW254776   2.149   1.022   2.106 -0.0508  0.2058 -2.1057
17779SOL     OW54777   3.912   5.243   4.786 -0.3709  0.1373  0.1573
17779SOL    HW154778   3.930   5.164   4.837 -0.4661  0.1582  0.2227
17779SOL    HW254779   3.997   5.267   4.749 -0.1440  0.5620  0.9319
17780SOL     OW54780   4.153   2.587   1.279  0.0955 -0.4833  0.2191
17780SOL    HW154781   4.073   2.539   1.300  0.6962 -1.1851  1.0373
17780SOL    HW254782   4.167   2.643   1.355 -0.9321  1.5094 -0.9964
17781SOL     OW54783   2.305   7.006   1.877  0.5910  0.3030 -0.2975
17781SOL    HW154784   2.294   7.024   1.970 -1.1719 -0.6695 -0.2876
17781SOL    HW254785   2.266   7.081   1.833 -2.4444 -1.0852 -0.2199
17782SOL     OW54786   3.124   4.447   0.287 -0.2781 -0.2407 -0.0148
17782SOL    HW154787   3.103   4.362   0.325  0.1550 -0.4406 -0.2093
17782SOL    HW254788   3.219   4.454   0.296 -0.4588  0.9621  1.5301
17783SOL     OW54789   6.268   4.573   6.465 -0.1545  0.1800  0.3595
17783SOL    HW154790   6.197   4.637   6.461 -1.5571 -1.1567  2.3938
17783SOL    HW254791   6.280   4.555   6.558  2.8838  0.3152  0.1112
17784SOL     OW54792   6.592   4.212   6.491 -0.2693 -0.3265 -0.0149
17784SOL    HW154793   6.557   4.255   6.413  1.3649 -0.3324 -0.7922
17784SOL    HW254794   6.514   4.192   6.544 -1.3945 -0.0706 -1.4937
17785SOL     OW54795   3.316   5.549   2.579  0.0615 -0.0905 -0.0781
17785SOL    HW154796   3.289   5.624   2.631 -0.1663 -0.5415  0.4540
17785SOL    HW254797   3.246   5.537   2.515 -0.8199 -0.9981  1.0269
17786SOL     OW54798   1.337   2.278   6.108 -0.6743  0.2905  0.7572
17786SOL    HW154799   1.340   2.372   6.124  0.4340  0.2550  0.7786
17786SOL    HW254800   1.336   2.270   6.012 -0.5415  0.3203  0.7531
17787SOL     OW54801   2.814   6.129   1.609  0.1673 -0.3968  0.2084
17787SOL    HW154802   2.766   6.193   1.555 -2.0564 -1.4151  0.8461
17787SOL    HW254803   2.777   6.044   1.583  1.0266 -1.1583  1.3810
17788SOL     OW54804   6.708   2.474  12.204 -0.4193 -0.1296  0.3248
17788SOL    HW154805   6.759   2.510  12.131  0.2925 -1.4662  0.1327
17788SOL    HW254806   6.618   2.500  12.185 -0.3255 -0.8633 -1.3185
17789SOL     OW54807   0.901   4.151   6.742  0.2926  0.1603 -0.5541
17789SOL    HW154808   0.895   4.238   6.703  0.3855  0.4636  0.0965
17789SOL    HW254809   0.945   4.098   6.676  2.1417  1.1176 -0.1567
17790SOL     OW54810   0.080   5.985   9.925  0.3063 -0.5721  0.1239
17790SOL    HW154811   0.054   5.903   9.883  1.3868 -1.3406  0.8853
17790SOL    HW254812   0.069   5.967  10.019  0.8310  0.0568  0.3057
17791SOL     OW54813   5.726   1.062   5.825  0.3942 -0.1797  0.0458
17791SOL    HW154814   5.736   1.155   5.847 -1.4054 -0.1084  0.6619
17791SOL    HW254815   5.659   1.060   5.757  0.9578 -0.9944 -0.5124
17792SOL     OW54816   0.875   4.122   0.601 -0.5235 -0.6550 -0.2942
17792SOL    HW154817   0.849   4.032   0.621 -1.3894 -0.2232  0.5920
17792SOL    HW254818   0.823   4.144   0.523  1.1890 -1.5767 -1.7631
17793SOL     OW54819   3.835   7.181   0.864  0.1333 -0.2943 -0.1993
17793SOL    HW154820   3.897   7.126   0.816  0.0906 -0.3094 -0.2377
17793SOL    HW254821   3.843   7.152   0.955 -0.4179 -0.8687 -0.3249
17794SOL     OW54822   4.244   6.542   2.113  0.0254 -0.1725  0.3735
17794SOL    HW154823   4.221   6.464   2.063  1.1378  0.3900 -1.1048
17794SOL    HW254824   4.166   6.597   2.110 -0.4795 -0.8432  0.7181
17795SOL     OW54825   5.420   7.317  10.954  0.2020  0.0907 -0.2468
17795SOL    HW154826   5.400   7.410  10.942 -1.0159 -0.0767  0.3325
17795SOL    HW254827   5.506   7.305  10.914  0.2404  1.4059 -0.5836
17796SOL     OW54828   7.194   4.216   0.720  0.3278  0.3514 -0.0279
17796SOL    HW154829   7.187   4.246   0.810 -0.7114 -0.4396  0.1722
17796SOL    HW254830   7.275   4.165   0.717 -0.2414 -0.6409  0.7853
17797SOL     OW54831   1.112   2.069   8.347  0.1775 -0.3117  0.1067
17797SOL    HW154832   1.068   2.019   8.416 -0.0788  0.5459  0.5896
17797SOL    HW254833   1.188   2.108   8.390  1.5293 -1.8994 -0.7633
17798SOL     OW54834   1.530   7.129  11.196  0.0418  0.6379  0.0596
17798SOL    HW154835   1.564   7.180  11.269 -2.0641  1.9043  0.2479
17798SOL    HW254836   1.469   7.067  11.237 -1.3739  1.5457 -0.5739
17799SOL     OW54837   6.375   2.121   3.144 -0.0197 -0.0411 -0.2756
17799SOL    HW154838   6.418   2.192   3.098  3.4226 -2.0175 -0.4721
17799SOL    HW254839   6.399   2.134   3.236  1.1910 -1.1913 -0.3937
17800SOL     OW54840   6.409   1.415   3.977 -0.3907  0.1735  0.3408
17800SOL    HW154841   6.392   1.324   3.952 -0.2017  0.4158 -0.7201
17800SOL    HW254842   6.473   1.409   4.048  1.3520 -0.4786 -1.2142
17801SOL     OW54843   6.418   5.046  11.748 -0.5196  0.3293 -0.5447
17801SOL    HW154844   6.437   4.985  11.676  0.4201 -0.5593  0.4339
17801SOL    HW254845   6.345   5.006  11.794  1.8064 -1.6397  1.7632
17802SOL     OW54846   1.190   0.020   9.314  0.1108 -0.1011  0.1313
17802SOL    HW154847   1.139   0.101   9.318 -0.3418 -0.3368 -0.6376
17802SOL    HW254848   1.277   0.044   9.346 -0.7453  0.0721  2.5028
17803SOL     OW54849   3.898   2.074  10.065  0.0810 -0.2089 -0.1742
17803SOL    HW154850   3.835   2.127  10.113 -0.3020 -1.1079  0.3181
17803SOL    HW254851   3.911   2.122   9.983  1.1037  1.5993  0.9698
17804SOL     OW54852   4.882   2.822   6.267  0.4065  0.3103  0.2619
17804SOL    HW154853   4.816   2.876   6.223  1.7834 -0.1328 -2.6047
17804SOL    HW254854   4.945   2.885   6.302  1.8149  0.8096 -2.7547
17805SOL     OW54855   5.134   5.931  10.096 -0.0666  0.1295  0.0786
17805SOL    HW154856   5.132   6.011  10.148  0.4255 -1.3456  2.5426
17805SOL    HW254857   5.216   5.888  10.120 -0.4327 -1.2497 -0.9575
17806SOL     OW54858   2.696   2.104  10.041  0.0281  0.2834  0.5934
17806SOL    HW154859   2.720   2.014  10.017  2.5459  0.7393  1.2133
17806SOL    HW254860   2.630   2.128   9.976  1.0327 -1.1966 -1.0797
17807SOL     OW54861   7.181   4.416   2.402 -0.1981 -0.0405  0.3508
17807SOL    HW154862   7.263   4.401   2.355 -0.2672  1.7291 -0.4407
17807SOL    HW254863   7.120   4.445   2.334 -1.1228 -0.1631  1.1185
17808SOL     OW54864   6.748   2.162   0.653  0.2431 -0.4717 -0.1473
17808SOL    HW154865   6.766   2.185   0.561  0.8934 -0.7214 -0.0874
17808SOL    HW254866   6.835   2.162   0.694  0.1257 -1.8400  0.1281
17809SOL     OW54867   1.039   3.462   8.343  0.3192  0.0732  0.4808
17809SOL    HW154868   1.040   3.415   8.260  2.0447 -0.5816  0.8263
17809SOL    HW254869   1.070   3.550   8.322  0.2242  0.0710  0.3340
17810SOL     OW54870   6.375   5.819   7.116  0.1232  0.0878 -0.2068
17810SOL    HW154871   6.441   5.789   7.178 -0.9677 -0.1653  0.8712
17810SOL    HW254872   6.423   5.875   7.055  1.2146  0.4302  0.9286
17811SOL     OW54873   0.661   2.089  12.166  0.5691 -0.1643 -0.2675
17811SOL    HW154874   0.653   2.099  12.260  2.7146  1.6497 -0.1846
17811SOL    HW254875   0.755   2.077  12.151  0.4949  1.2306 -2.2417
17812SOL     OW54876   7.448   2.129   8.096  0.3279 -0.3815 -0.2994
17812SOL    HW154877   7.494   2.131   8.012 -0.3757  0.0523 -0.6901
17812SOL    HW254878   7.356   2.146   8.073  0.5389  3.2991  0.8602
17813SOL     OW54879   0.104   2.078   3.698 -0.1736  1.1493  0.1466
17813SOL    HW154880   0.129   2.151   3.642 -0.9770  0.7655 -0.7495
17813SOL    HW254881   0.134   2.000   3.651 -1.5145  0.7784 -0.1381
17814SOL     OW54882   6.046   2.382   2.548 -0.2149  0.1301  0.2043
17814SOL    HW154883   6.041   2.343   2.460  1.8928  0.6379 -0.1961
17814SOL    HW254884   5.956   2.379   2.580 -0.8022 -1.3725 -1.3975
17815SOL     OW54885   6.511   5.673   1.913 -0.1086 -0.3259  0.5476
17815SOL    HW154886   6.560   5.718   1.981  1.7248  1.2044 -1.6091
17815SOL    HW254887   6.535   5.581   1.923  1.8282  0.1419  0.7221
17816SOL     OW54888   1.062   7.170   2.260  0.6330 -0.1913 -0.4982
17816SOL    HW154889   1.084   7.109   2.190  2.8095 -0.6094  0.4798
17816SOL    HW254890   1.112   7.249   2.240  0.0828  0.2414 -0.2053
17817SOL     OW54891   5.145   0.636   2.501  0.2649  0.2446 -0.5702
17817SOL    HW154892   5.060   0.619   2.462 -1.0413  0.6211  1.9091
17817SOL    HW254893   5.128   0.702   2.567  1.8846 -1.6522  1.9440
17818SOL     OW54894   2.394   6.171   7.817  0.1099 -0.0701 -0.8369
17818SOL    HW154895   2.450   6.236   7.858 -0.9384  0.5917 -0.4138
17818SOL    HW254896   2.455   6.112   7.771  1.1593  0.3639 -0.0407
17819SOL     OW54897   5.897   1.000   5.442 -0.5057 -0.7706 -0.6975
17819SOL    HW154898   5.842   1.076   5.462 -1.8715 -1.5609 -1.3029
17819SOL    HW254899   5.947   0.985   5.522  0.1873  1.0734 -0.7484
17820SOL     OW54900   5.135   7.871  10.824  0.1160 -0.2714  0.5341
17820SOL    HW154901   5.084   7.839  10.749  1.4429 -0.2258 -0.4154
17820SOL    HW254902   5.215   7.907  10.785 -0.3154  2.1962  1.7409
17821SOL     OW54903   5.557   3.119   8.356  0.4068  0.6571  0.1375
17821SOL    HW154904   5.496   3.062   8.402 -0.7309  1.3650 -0.4621
17821SOL    HW254905   5.598   3.063   8.290 -1.1894  0.6654 -0.8951
17822SOL     OW54906   5.342   0.624  10.710 -0.3259  0.5228  0.0382
17822SOL    HW154907   5.268   0.576  10.748  0.5665 -1.2821 -0.3631
17822SOL    HW254908   5.347   0.705  10.761 -0.8476 -0.5833  1.9713
17823SOL     OW54909   2.189   1.337  11.400 -0.5447 -0.1628 -0.2004
17823SOL    HW154910   2.135   1.348  11.323  1.9258 -0.6142 -2.1303
17823SOL    HW254911   2.147   1.266  11.449 -1.0470 -1.3666 -2.2537
17824SOL     OW54912   7.681   0.856   7.179  1.0425  0.2081  0.3611
17824SOL    HW154913   7.751   0.899   7.229  1.1221  0.1746  0.2781
17824SOL    HW254914   7.669   0.772   7.224  0.9160  0.2985  0.4972
17825SOL     OW54915   5.172   3.980   7.004  0.1388 -0.6039 -0.4450
17825SOL    HW154916   5.229   3.919   7.050  0.6859  1.6040  2.0362
17825SOL    HW254917   5.083   3.946   7.019  0.3929 -0.5838  1.3156
17826SOL     OW54918   4.866   7.851   4.080  0.0541  0.3227 -0.0326
17826SOL    HW154919   4.946   7.825   4.126  0.1476  1.0746  0.2405
17826SOL    HW254920   4.830   7.769   4.045  0.5945 -0.1014  0.4027
17827SOL     OW54921   1.293   3.765   1.340  0.3152 -0.1684 -0.0332
17827SOL    HW154922   1.326   3.777   1.250  2.1560 -0.5212  0.5447
17827SOL    HW254923   1.367   3.728   1.387 -0.5651  0.1900  1.6970
17828SOL     OW54924   1.807   1.599   0.182 -0.0362  0.1097  0.0728
17828SOL    HW154925   1.755   1.672   0.147  0.0890  0.9891  1.6156
17828SOL    HW254926   1.805   1.612   0.277  0.1576 -1.8114  0.3792
17829SOL     OW54927   1.469   4.804   3.669  0.3516  0.1572 -0.4946
17829SOL    HW154928   1.478   4.872   3.736  1.2903  0.2392 -0.6902
17829SOL    HW254929   1.411   4.739   3.708  0.5438  0.4117  0.2264
17830SOL     OW54930   1.605   7.013  10.431 -0.4946  0.1863  0.4073
17830SOL    HW154931   1.674   6.948  10.442  0.4287  0.6803 -1.9702
17830SOL    HW254932   1.643   7.079  10.374 -2.2992  1.5000  0.6487
17831SOL     OW54933   0.591   3.437   4.240  0.1974  0.4652 -0.1001
17831SOL    HW154934   0.595   3.428   4.145 -3.3988  0.4740 -0.4160
17831SOL    HW254935   0.566   3.349   4.271 -0.0504  0.7979  0.6757
17832SOL     OW54936   2.520   2.274   7.883  0.7452 -0.0397 -0.0504
17832SOL    HW154937   2.445   2.331   7.865  1.4712  0.8522 -0.3116
17832SOL    HW254938   2.570   2.275   7.802  0.9686 -0.7629  0.0709
17833SOL     OW54939   3.266   7.593   7.567 -0.1427 -0.1818  0.4423
17833SOL    HW154940   3.283   7.681   7.532  0.8779 -0.5463 -0.0302
17833SOL    HW254941   3.210   7.552   7.501 -1.5237  0.4525  1.1783
17834SOL     OW54942   7.359   1.769   7.672  0.2605 -0.0496 -0.2048
17834SOL    HW154943   7.449   1.774   7.641  0.8416 -0.7241  1.2572
17834SOL    HW254944   7.364   1.715   7.751 -1.3521  0.3109  0.1844
17835SOL     OW54945   7.506   4.808   7.301  0.1471 -0.3377  0.3812
17835SOL    HW154946   7.601   4.798   7.306  0.2003 -0.2586 -0.3542
17835SOL    HW254947   7.489   4.895   7.339  0.6489  0.7827 -1.8054
17836SOL     OW54948   6.921   1.397  12.364 -1.1404 -0.1071  0.4169
17836SOL    HW154949   6.915   1.385  12.458 -0.8514  0.6676  0.5396
17836SOL    HW254950   6.955   1.313  12.331 -0.6160 -0.1527  1.0660
17837SOL     OW54951   7.450   0.947   7.272  0.2650 -0.2341  0.3536
17837SOL    HW154952   7.383   0.900   7.223  1.8933 -2.6889  0.2950
17837SOL    HW254953   7.530   0.939   7.220  0.6911  2.7065  0.3491
17838SOL     OW54954   0.879   1.955  10.970  0.0704  0.1459  0.2636
17838SOL    HW154955   0.886   2.038  11.018  0.8287  1.0744 -1.3482
17838SOL    HW254956   0.792   1.923  10.992  0.0789  0.9388  1.5888
17839SOL     OW54957   5.476   3.344   0.301 -0.3021 -0.4375 -0.4373
17839SOL    HW154958   5.549   3.297   0.261  1.0204  1.3326 -0.1899
17839SOL    HW254959   5.424   3.275   0.343  1.8488 -1.6576  0.4040
17840SOL     OW54960   1.141   0.934   2.403  0.2475  0.4472 -0.2864
17840SOL    HW154961   1.121   0.932   2.309  2.6555 -0.2705 -0.8447
17840SOL    HW254962   1.132   1.026   2.427 -0.6415  0.6050 -1.1530
17841SOL     OW54963   2.686   1.632   2.334  0.2046  0.3840  0.4545
17841SOL    HW154964   2.669   1.643   2.428 -0.5036 -0.7119  0.4768
17841SOL    HW254965   2.774   1.596   2.330  0.3660  0.7431  0.6726
17842SOL     OW54966   7.947   1.814  11.069  0.1408  0.4902  0.1101
17842SOL    HW154967   8.004   1.823  10.993  0.6043  0.6715  0.4772
17842SOL    HW254968   7.861   1.792  11.032  0.5519 -0.2483 -0.4137
17843SOL     OW54969   4.929   4.392   3.547 -0.4943  0.0068  0.2322
17843SOL    HW154970   4.975   4.470   3.515  0.3431 -0.7199 -0.3935
17843SOL    HW254971   4.930   4.332   3.472 -1.8879 -0.2838  0.4257
17844SOL     OW54972   2.643   1.041   9.766 -0.1584 -0.0690 -0.7165
17844SOL    HW154973   2.692   0.970   9.725  0.9345  0.4597 -0.3489
17844SOL    HW254974   2.635   1.015   9.857  0.5469  0.4418 -0.5078
17845SOL     OW54975   0.262   5.018   6.468  0.7198  0.3154  0.6187
17845SOL    HW154976   0.241   4.933   6.505 -2.2671 -0.1260 -1.6628
17845SOL    HW254977   0.228   5.081   6.532 -0.0922 -0.3164  0.8344
17846SOL     OW54978   4.005   4.315  12.397 -0.1521  0.5726  0.0892
17846SOL    HW154979   4.052   4.284  12.319  0.1468 -2.3166  1.2574
17846SOL    HW254980   4.074   4.344  12.456 -0.1054 -0.0668  0.3626
17847SOL     OW54981   5.940   7.809   3.372  0.3771 -0.6735 -0.0195
17847SOL    HW154982   5.861   7.782   3.326  1.7085 -1.7990 -1.7507
17847SOL    HW254983   5.959   7.897   3.339 -0.2000 -0.3599  0.4799
17848SOL     OW54984   3.780   6.500  10.728  0.4551  0.0321  0.3008
17848SOL    HW154985   3.707   6.467  10.676  0.2661  0.0168  0.5805
17848SOL    HW254986   3.776   6.452  10.810  1.4519 -0.8024 -0.1062
17849SOL     OW54987   7.869   7.226   2.194 -0.1986 -0.0910 -0.2321
17849SOL    HW154988   7.792   7.169   2.183  0.2000 -0.4163 -1.5905
17849SOL    HW254989   7.938   7.168   2.226 -0.0820 -0.1558 -0.5937
17850SOL     OW54990   2.330   7.597   6.921 -0.1233  0.0734 -0.6147
17850SOL    HW154991   2.417   7.558   6.916  1.2286  2.9475 -3.1313
17850SOL    HW254992   2.296   7.590   6.832 -2.0607 -0.0403  0.0903
17851SOL     OW54993   6.123   3.190   3.953  0.5335 -0.1004  0.0059
17851SOL    HW154994   6.109   3.095   3.961  0.1529 -0.4899 -3.4285
17851SOL    HW254995   6.036   3.228   3.966 -0.3408 -0.7723 -3.0483
17852SOL     OW54996   2.739   2.664  11.496 -0.1172  0.5880  0.0343
17852SOL    HW154997   2.718   2.608  11.422  2.4785 -0.3897 -0.0939
17852SOL    HW254998   2.666   2.654  11.557 -0.0183 -2.5744 -0.2170
17853SOL     OW54999   7.735   4.149   0.600  0.0788  0.8382  0.2143
17853SOL    HW155000   7.736   4.154   0.504 -1.9391  0.2947  0.1138
17853SOL    HW255001   7.808   4.204   0.628  1.3936  0.1525 -1.6408
17854SOL     OW55002   4.344   6.481   6.050  0.0431 -0.3442  0.3427
17854SOL    HW155003   4.423   6.467   5.999  0.7296  0.3443  1.1967
17854SOL    HW255004   4.293   6.544   5.999  1.8913  2.3845  1.6447
17855SOL     OW55005   0.889   7.144   7.133  0.4579 -0.1744  0.2292
17855SOL    HW155006   0.974   7.185   7.145  0.1067  0.6246  0.0559
17855SOL    HW255007   0.909   7.052   7.116  1.5054  0.5171 -2.9914
17856SOL     OW55008   2.786   7.149   9.914 -0.2205  0.2870 -0.7789
17856SOL    HW155009   2.872   7.189   9.900 -0.3391  0.4329 -1.1013
17856SOL    HW255010   2.778   7.085   9.843 -0.6836  0.7867 -1.1806
17857SOL     OW55011   5.437   6.734  12.027  0.2471  0.6382  0.0370
17857SOL    HW155012   5.465   6.647  12.054 -0.6350  0.8967  2.0299
17857SOL    HW255013   5.509   6.768  11.974  1.4673 -0.5699  0.8461
17858SOL     OW55014   5.280   5.525   4.496 -0.0744  0.0505 -0.0235
17858SOL    HW155015   5.265   5.610   4.454 -1.3548  0.7349  1.7066
17858SOL    HW255016   5.227   5.527   4.575  0.7492 -1.9445  0.6587
17859SOL     OW55017   2.632   5.664   7.900  0.2033 -0.1024 -0.2637
17859SOL    HW155018   2.607   5.756   7.894  0.7481  0.0624 -0.0730
17859SOL    HW255019   2.563   5.617   7.853  1.2856  0.6210 -2.7405
17860SOL     OW55020   1.006   3.742   8.262  0.1376 -0.9773 -0.0681
17860SOL    HW155021   0.995   3.678   8.192 -1.0961 -1.6025  0.6619
17860SOL    HW255022   1.084   3.792   8.237 -0.5699 -0.8185 -2.1620
17861SOL     OW55023   4.822   7.054   0.229 -0.2343 -0.0186  0.4404
17861SOL    HW155024   4.876   7.130   0.251  1.3415 -0.9909  0.0478
17861SOL    HW255025   4.853   6.985   0.288  1.0070 -1.4155 -1.7235
17862SOL     OW55026   6.817   2.410   2.910 -0.0831 -0.5357 -0.3215
17862SOL    HW155027   6.782   2.322   2.901 -0.6057 -0.3734  0.0526
17862SOL    HW255028   6.788   2.438   2.997  0.7983 -0.3134 -0.0983
17863SOL     OW55029   7.421   1.243   1.601 -0.1835 -0.1809  0.9566
17863SOL    HW155030   7.439   1.240   1.695  0.2417 -1.2957  0.8586
17863SOL    HW255031   7.454   1.328   1.572  0.8649 -0.3582  1.5967
17864SOL     OW55032   2.558   4.808   7.952 -0.4781 -0.5248 -0.4629
17864SOL    HW155033   2.633   4.783   8.006  0.3447  1.5955 -0.5180
17864SOL    HW255034   2.572   4.763   7.868 -0.0239 -1.2453 -0.0117
17865SOL     OW55035   7.510   3.553   1.163 -0.0250 -0.4202  0.2801
17865SOL    HW155036   7.535   3.642   1.188 -0.2954 -0.5181  0.9271
17865SOL    HW255037   7.504   3.555   1.068 -1.6477  0.6905  0.3673
17866SOL     OW55038   1.654   5.673   5.242  0.3040  0.5496  1.0157
17866SOL    HW155039   1.674   5.729   5.167  1.3200  0.8580  1.5040
17866SOL    HW255040   1.665   5.584   5.208  0.5650  0.6804  0.7522
17867SOL     OW55041   0.335   5.358   1.508  0.0221  0.1768  0.4114
17867SOL    HW155042   0.248   5.392   1.526 -0.1181  0.1713 -0.2251
17867SOL    HW255043   0.375   5.423   1.450  0.2172 -0.1223  0.2092
17868SOL     OW55044   3.718   4.793   4.003  0.5342 -0.2684 -0.0542
17868SOL    HW155045   3.777   4.746   4.062 -0.2220 -0.4506  0.5810
17868SOL    HW255046   3.650   4.730   3.981  0.2309  0.1245 -0.2666
17869SOL     OW55047   7.628   4.569   9.437  0.4806  0.2981  0.2302
17869SOL    HW155048   7.654   4.486   9.398  0.8298  1.0582 -1.2160
17869SOL    HW255049   7.533   4.570   9.430  0.5355  0.4197 -0.6252
17870SOL     OW55050   0.712   3.949   1.652 -0.1732  0.4162 -0.0123
17870SOL    HW155051   0.785   4.002   1.620 -0.4732  0.5129 -0.5352
17870SOL    HW255052   0.702   3.976   1.744  0.6718  0.1482  0.1693
17871SOL     OW55053   4.353   4.473   6.834 -0.2102  0.1157  0.3912
17871SOL    HW155054   4.389   4.560   6.817 -0.0726 -0.2132 -1.1166
17871SOL    HW255055   4.430   4.416   6.839 -0.3918 -0.3256 -1.2476
17872SOL     OW55056   1.951   5.549  11.787 -0.0400  0.0066 -0.5306
17872SOL    HW155057   1.865   5.568  11.750 -0.6917 -1.5481  0.0915
17872SOL    HW255058   1.939   5.467  11.836  1.7302 -0.1139 -0.2133
17873SOL     OW55059   5.640   0.272   3.900  0.2901  0.2853  0.3811
17873SOL    HW155060   5.666   0.182   3.878 -1.5646 -0.3636  0.6158
17873SOL    HW255061   5.626   0.269   3.995 -0.9518  0.4785  0.2164
17874SOL     OW55062   0.675   1.474  11.609 -0.4202 -0.1122  0.0911
17874SOL    HW155063   0.587   1.473  11.572 -0.1534  0.6657 -0.5741
17874SOL    HW255064   0.678   1.555  11.661  0.0636  0.1117 -0.2834
17875SOL     OW55065   1.569   0.007   0.869 -0.1135 -0.1302 -0.0848
17875SOL    HW155066   1.600   0.083   0.820  2.8927 -0.9163  0.3955
17875SOL    HW255067   1.537   0.042   0.952  1.7778  0.6374  0.3665
17876SOL     OW55068   0.990   6.125   9.624 -0.1901 -0.1638  0.5624
17876SOL    HW155069   0.905   6.162   9.646 -0.0214 -0.5035  1.8354
17876SOL    HW255070   1.008   6.061   9.693  0.6586 -0.8149 -0.2244
17877SOL     OW55071   4.748   0.357   3.602  1.3579 -0.0379 -0.0064
17877SOL    HW155072   4.769   0.310   3.521  0.8011  0.4492 -0.4508
17877SOL    HW255073   4.755   0.291   3.671  0.5246 -0.8118 -0.6225
17878SOL     OW55074   6.667   5.868  12.007  0.1392  0.2542  0.0081
17878SOL    HW155075   6.688   5.921  11.930 -0.6677  0.2767 -0.2053
17878SOL    HW255076   6.741   5.808  12.015  0.0365 -0.0484 -1.0609
17879SOL     OW55077   7.728   2.015   4.874  0.0980 -0.1914  0.1447
17879SOL    HW155078   7.735   2.064   4.956  0.3420 -0.4139  0.2585
17879SOL    HW255079   7.815   2.021   4.835  0.0312 -0.2358 -0.0118
17880SOL     OW55080   2.811   1.909   1.095  0.1412  0.6943 -0.2063
17880SOL    HW155081   2.792   1.824   1.056  1.0881 -0.6662  2.0727
17880SOL    HW255082   2.726   1.942   1.124 -0.0311 -0.4916  0.7372
17881SOL     OW55083   0.703   0.385  12.267 -0.2593  0.1239 -0.1523
17881SOL    HW155084   0.625   0.338  12.237 -0.6255  0.3555  0.4112
17881SOL    HW255085   0.718   0.353  12.356 -0.0693  0.5221 -0.0394
17882SOL     OW55086   5.520   7.159   6.381 -0.0160 -0.5697 -0.3573
17882SOL    HW155087   5.589   7.188   6.322 -0.2417 -3.5344 -2.2944
17882SOL    HW255088   5.566   7.114   6.452  0.1624  1.3847  0.8345
17883SOL     OW55089   7.026   7.441  11.028 -0.1192  0.2803 -0.4524
17883SOL    HW155090   7.047   7.355  11.063  0.0249  0.7164  0.5528
17883SOL    HW255091   7.030   7.430  10.933  0.3804 -0.6924 -0.3253
17884SOL     OW55092   6.973   6.079  12.152 -0.3057  0.0013 -0.0157
17884SOL    HW155093   6.906   6.017  12.180 -0.7828  0.0766 -0.9630
17884SOL    HW255094   7.048   6.061  12.209 -0.8610 -0.6062  0.5383
17885SOL     OW55095   1.058   0.854   7.245  0.3227 -0.2076  0.1635
17885SOL    HW155096   1.010   0.895   7.317  0.8980  0.8177 -0.0102
17885SOL    HW255097   1.033   0.903   7.167 -1.0176 -1.9100 -0.5359
17886SOL     OW55098   1.689   7.412  10.431  0.4874  0.0409  0.4046
17886SOL    HW155099   1.726   7.501  10.436 -2.0743  1.1197  2.3204
17886SOL    HW255100   1.609   7.417  10.483 -0.3372 -3.1449 -0.3907
17887SOL     OW55101   7.546   3.499   9.790 -0.1082 -0.4484 -0.2376
17887SOL    HW155102   7.632   3.526   9.758 -0.6263  0.5895 -0.7896
17887SOL    HW255103   7.508   3.451   9.717  0.6100 -2.3323  0.5649
17888SOL     OW55104   0.828   7.714   8.914 -0.1771  0.0874 -0.2110
17888SOL    HW155105   0.777   7.791   8.889  1.6895  1.0259 -1.3617
17888SOL    HW255106   0.862   7.680   8.831 -0.3307 -1.5525  0.3534
17889SOL     OW55107   2.053   1.161   7.917  0.0606  0.5396  0.2012
17889SOL    HW155108   2.047   1.208   7.834 -1.8037 -0.2705 -0.1859
17889SOL    HW255109   1.980   1.194   7.969  1.0973  0.9066  1.4937
17890SOL     OW55110   6.051   7.507   0.462  0.0686 -0.6504  0.1884
17890SOL    HW155111   6.033   7.449   0.536  2.1382 -2.0862 -0.3525
17890SOL    HW255112   5.978   7.492   0.402 -1.7802  0.7211  1.9384
17891SOL     OW55113   2.824   2.749   2.466  0.8677  0.4219  0.4136
17891SOL    HW155114   2.755   2.732   2.530  0.8664 -0.3528  0.2249
17891SOL    HW255115   2.779   2.791   2.393  0.7370  0.6407  0.6205
17892SOL     OW55116   2.047   7.244  10.280  0.1647  0.0618 -0.0623
17892SOL    HW155117   2.020   7.194  10.357  1.3188  0.5284  0.6688
17892SOL    HW255118   2.139   7.219  10.266 -0.1987 -0.4927 -1.6863
17893SOL     OW55119   4.544   1.538  10.094 -0.4334 -0.2667 -0.4076
17893SOL    HW155120   4.568   1.617  10.047 -0.9697 -0.4057 -0.9280
17893SOL    HW255121   4.571   1.466  10.037  0.3146 -0.4708  0.1902
17894SOL     OW55122   4.619   7.046   2.744  0.6759 -0.4178  0.2997
17894SOL    HW155123   4.668   7.127   2.729 -0.4756  0.1163 -0.7709
17894SOL    HW255124   4.532   7.064   2.708  0.5699 -2.3505 -0.5016
17895SOL     OW55125   7.061   6.190  11.044  0.1118  0.1774 -0.3540
17895SOL    HW155126   7.136   6.246  11.026  1.2418 -1.6756 -1.7868
17895SOL    HW255127   6.998   6.211  10.975  1.5618 -1.9483 -2.4745
17896SOL     OW55128   3.751   1.815   6.260 -0.6631 -0.0055 -0.2324
17896SOL    HW155129   3.716   1.835   6.173  0.0529 -0.5837 -0.6577
17896SOL    HW255130   3.704   1.736   6.287  1.1827 -1.5626 -1.3634
17897SOL     OW55131   7.673   6.060   4.618  0.0461 -0.5614  0.7372
17897SOL    HW155132   7.613   5.985   4.626  0.7501 -1.1579  0.5339
17897SOL    HW255133   7.662   6.089   4.528 -1.3854  0.5959  1.2418
17898SOL     OW55134   6.841   0.919  11.899  0.1218  0.2725 -0.0605
17898SOL    HW155135   6.903   0.943  11.968 -3.0712  0.0225  3.2107
17898SOL    HW255136   6.795   1.001  11.880 -0.4531 -0.1078 -0.3016
17899SOL     OW55137   7.744   6.480   3.564  0.6463  0.4114  0.4298
17899SOL    HW155138   7.693   6.558   3.543 -0.2626 -0.1610  0.4816
17899SOL    HW255139   7.819   6.484   3.504 -0.2477  0.4758 -0.7207
17900SOL     OW55140   4.393   5.891   5.123 -0.2926 -0.0034 -0.1541
17900SOL    HW155141   4.477   5.937   5.128  0.6736 -1.7640  1.0928
17900SOL    HW255142   4.415   5.807   5.084 -1.4404 -0.5658  0.3714
17901SOL     OW55143   1.614   6.801   5.711 -0.0885  0.2948 -0.3526
17901SOL    HW155144   1.643   6.803   5.620  1.8117 -2.5001  0.0760
17901SOL    HW255145   1.691   6.772   5.760 -1.7626 -0.7557  1.8026
17902SOL     OW55146   3.187   2.173   2.519  0.3381 -0.0186  0.1484
17902SOL    HW155147   3.251   2.139   2.457  1.4972  1.8357  0.2693
17902SOL    HW255148   3.147   2.248   2.475 -1.8500 -1.1530  0.0593
17903SOL     OW55149   0.299   3.022   7.214  0.2744  0.1939 -0.5455
17903SOL    HW155150   0.264   3.099   7.257  0.0477  0.6199 -1.4734
17903SOL    HW255151   0.379   3.052   7.172  0.1859 -0.0652 -0.9081
17904SOL     OW55152   4.786   3.955   9.659 -0.0895 -0.3771 -0.2481
17904SOL    HW155153   4.878   3.954   9.686 -0.1941 -0.2289  0.1186
17904SOL    HW255154   4.758   4.045   9.672 -0.6751 -0.7223  0.9847
17905SOL     OW55155   5.087   4.273   2.183 -0.5718  0.0032 -0.7415
17905SOL    HW155156   5.179   4.247   2.171 -0.2829  1.2142 -1.2653
17905SOL    HW255157   5.048   4.198   2.228  1.4363  0.7285  2.5829
17906SOL     OW55158   0.033   6.382   5.149 -0.3077  0.3667  0.2947
17906SOL    HW155159  -0.018   6.319   5.097 -0.9738  0.7560  0.4570
17906SOL    HW255160  -0.007   6.467   5.130  0.7742  0.7920 -0.1547
17907SOL     OW55161   1.895   7.641   7.799  0.2286 -0.1138 -0.1047
17907SOL    HW155162   1.920   7.733   7.805 -4.1392  1.1508  2.3590
17907SOL    HW255163   1.819   7.640   7.742  1.7171 -2.7884 -2.3347
17908SOL     OW55164   2.999   7.368   7.678  0.0577  0.1526 -0.0347
17908SOL    HW155165   2.936   7.395   7.745 -1.0592  0.0524 -1.0109
17908SOL    HW255166   3.019   7.449   7.630  0.0060  0.0242 -0.2723
17909SOL     OW55167   0.728   3.740   8.029  0.8369 -0.6199  0.1373
17909SOL    HW155168   0.804   3.797   8.021  1.7661 -1.1746  3.3441
17909SOL    HW255169   0.671   3.785   8.091 -0.9104 -0.8173 -1.2360
17910SOL     OW55170   4.430   6.598  10.320 -0.3845 -0.3979 -0.2009
17910SOL    HW155171   4.361   6.555  10.370 -1.5459  0.1200 -1.3077
17910SOL    HW255172   4.394   6.607  10.232  0.5539  1.1668 -0.4597
17911SOL     OW55173   1.321   0.398   7.986 -0.0247 -0.0302  0.1383
17911SOL    HW155174   1.386   0.469   7.988  1.0699 -0.8921 -1.9661
17911SOL    HW255175   1.296   0.391   7.894 -0.3705 -2.1300  0.3438
17912SOL     OW55176   4.084   3.702   3.339 -0.0333 -0.4376  0.3363
17912SOL    HW155177   4.040   3.717   3.423 -0.3301  0.2365  0.0707
17912SOL    HW255178   4.148   3.633   3.357 -1.3941 -1.6516  0.6553
17913SOL     OW55179   3.663   3.945  10.939  0.1166 -0.1906 -0.0019
17913SOL    HW155180   3.612   4.002  10.881 -0.0661  1.2004  1.4377
17913SOL    HW255181   3.745   3.993  10.954  0.3731 -0.7609  0.4580
17914SOL     OW55182   1.750   7.375   2.101  0.5208  0.3064 -0.3910
17914SOL    HW155183   1.782   7.354   2.013 -0.1246  0.7849 -0.7485
17914SOL    HW255184   1.823   7.421   2.142  1.1143 -0.6091 -0.3924
17915SOL     OW55185   1.918   7.653   8.229  0.2269  0.0307 -0.1711
17915SOL    HW155186   1.992   7.648   8.289  0.4908 -0.6614 -0.5369
17915SOL    HW255187   1.880   7.565   8.232 -1.5624  0.7898  1.2210
17916SOL     OW55188   4.787   6.918   0.733  0.6653  0.2988 -0.3934
17916SOL    HW155189   4.720   6.902   0.799  1.0115  0.1969 -0.0619
17916SOL    HW255190   4.835   6.995   0.766  0.6893  0.3908 -0.6435
17917SOL     OW55191   2.685   6.977   3.453 -0.7807 -0.0421 -0.0153
17917SOL    HW155192   2.657   6.944   3.538  0.2947  0.5346  0.5860
17917SOL    HW255193   2.626   7.050   3.434 -0.7227  0.1294  0.4597
17918SOL     OW55194   3.807   4.261  12.151  0.0182  0.1680  0.3206
17918SOL    HW155195   3.808   4.294  12.241 -0.4228  0.5670  0.1771
17918SOL    HW255196   3.716   4.239  12.134 -0.6315  3.4544 -1.2405
17919SOL     OW55197   7.845   7.497   2.244 -0.2628  0.3687  0.1829
17919SOL    HW155198   7.793   7.522   2.168  0.4490  1.3544 -0.0031
17919SOL    HW255199   7.840   7.401   2.247  0.0123  0.2901 -1.3304
17920SOL     OW55200   1.991   1.705   7.737  0.0452  0.2897 -0.4977
17920SOL    HW155201   2.054   1.714   7.809 -1.3114  2.3793  0.5091
17920SOL    HW255202   2.042   1.665   7.667  1.9009 -0.1509  1.0092
17921SOL     OW55203   3.420   6.774   3.163  0.1917 -0.9437  0.2356
17921SOL    HW155204   3.330   6.793   3.189 -1.0331 -2.6207 -2.3730
17921SOL    HW255205   3.455   6.859   3.137 -1.2248 -0.4849 -0.2919
17922SOL     OW55206   5.574   4.612   9.054 -0.1549  0.0802  0.0422
17922SOL    HW155207   5.521   4.621   9.133 -1.5373 -0.1227 -0.8247
17922SOL    HW255208   5.599   4.520   9.052  0.0523  0.1276  0.3292
17923SOL     OW55209   6.517   0.791   0.022  0.1528  0.1051  0.1889
17923SOL    HW155210   6.450   0.800  -0.045  1.4133  1.1040 -0.9983
17923SOL    HW255211   6.600   0.794  -0.026  1.1159  1.3480  1.7950
17924SOL     OW55212   7.117   6.440   4.123  0.0158  0.0684 -0.0585
17924SOL    HW155213   7.154   6.524   4.093  0.5535 -0.6614 -1.4896
17924SOL    HW255214   7.177   6.374   4.089 -0.9069 -0.9683  0.2839
17925SOL     OW55215   0.053   3.274   3.172  0.4515 -0.0837  0.0668
17925SOL    HW155216  -0.021   3.302   3.118  0.5433  0.1542  0.0610
17925SOL    HW255217   0.023   3.286   3.262 -0.3323 -2.1246  0.1148
17926SOL     OW55218   2.795   1.987   2.795 -0.0480 -0.1698  0.7582
17926SOL    HW155219   2.807   1.981   2.700  1.1249  0.0496  0.8757
17926SOL    HW255220   2.785   1.896   2.823  0.4629 -0.3116  0.5080
17927SOL     OW55221   1.228   1.884  10.037 -0.0436 -0.3416 -0.0625
17927SOL    HW155222   1.267   1.922  10.116 -1.6697 -0.7858  1.0194
17927SOL    HW255223   1.255   1.943   9.967 -0.9917  1.8425  1.2806
17928SOL     OW55224   0.619   4.917  10.223  0.1226 -0.7517  0.1249
17928SOL    HW155225   0.584   4.954  10.141 -3.1477 -0.3812  1.5093
17928SOL    HW255226   0.690   4.977  10.247  0.6909 -0.4567 -2.0123
17929SOL     OW55227   0.720   5.810   3.413 -0.2041 -0.2027  0.5276
17929SOL    HW155228   0.657   5.770   3.353  1.0000 -1.2541 -0.0768
17929SOL    HW255229   0.710   5.904   3.399 -0.5931 -0.4022 -0.6549
17930SOL     OW55230   5.220   0.585   6.885 -0.2743 -0.1206 -0.3835
17930SOL    HW155231   5.278   0.618   6.954 -1.9040  1.6661  0.2359
17930SOL    HW255232   5.145   0.549   6.932  0.5055 -2.9995 -1.1414
17931SOL     OW55233   4.173   0.013   6.437  0.5461  0.6336 -0.2516
17931SOL    HW155234   4.146   0.054   6.354  0.7402 -2.1884 -1.8334
17931SOL    HW255235   4.262  -0.017   6.420  0.4093 -0.4149  0.8159
17932SOL     OW55236   0.091   0.735  10.803  0.3049  0.1192 -0.2421
17932SOL    HW155237   0.015   0.729  10.861 -0.6968  1.5880 -1.3309
17932SOL    HW255238   0.154   0.674  10.840 -0.4828  0.6283  2.0884
17933SOL     OW55239   7.289   6.550   2.504  0.6475  0.2790  0.2824
17933SOL    HW155240   7.278   6.518   2.593 -0.2830  0.8937  0.4077
17933SOL    HW255241   7.223   6.504   2.453 -1.5112  2.6726  0.6758
17934SOL     OW55242   3.344   0.784   4.192 -0.0138  0.3272  0.3433
17934SOL    HW155243   3.324   0.874   4.217  1.2835  0.9870 -0.8706
17934SOL    HW255244   3.437   0.785   4.170 -0.5112 -0.7155 -2.0847
17935SOL     OW55245   7.529   7.316   8.288 -0.5764  0.8583 -0.4159
17935SOL    HW155246   7.600   7.265   8.326 -1.1932 -0.2715 -0.7277
17935SOL    HW255247   7.451   7.261   8.299 -1.0039  1.0705 -2.0977
17936SOL     OW55248   2.216   2.211   6.844  0.2686  0.5616  0.5693
17936SOL    HW155249   2.264   2.247   6.770  0.1962 -0.7955 -0.1788
17936SOL    HW255250   2.159   2.282   6.873  0.6710  1.2787 -0.3463
17937SOL     OW55251   0.578   6.296   1.644  0.0929  0.6586 -0.3240
17937SOL    HW155252   0.551   6.294   1.736  2.8448  1.4618  0.5778
17937SOL    HW255253   0.540   6.216   1.606 -1.3643  0.4835  1.3949
17938SOL     OW55254   7.268   5.706  11.499  0.3284  0.1563 -0.1297
17938SOL    HW155255   7.249   5.669  11.413  0.3402  1.2628 -0.6219
17938SOL    HW255256   7.225   5.791  11.499 -1.0973 -0.4961  1.5932
17939SOL     OW55257   1.390   7.527  11.197  0.8487  0.2085  0.3211
17939SOL    HW155258   1.446   7.556  11.270 -0.6478  0.8412  1.2516
17939SOL    HW255259   1.436   7.556  11.119  0.9075  2.4257  1.1208
17940SOL     OW55260   3.160   0.707   7.246 -0.3890 -0.6400  0.1329
17940SOL    HW155261   3.126   0.780   7.298 -1.3193  0.6063 -2.0818
17940SOL    HW255262   3.200   0.648   7.310 -0.1624  1.4887  2.0669
17941SOL     OW55263   6.362   6.099  12.122 -0.0272  0.4799 -0.3444
17941SOL    HW155264   6.329   6.163  12.186 -0.1101  0.7831 -0.6875
17941SOL    HW255265   6.435   6.144  12.080  0.8377 -0.1826  0.4023
17942SOL     OW55266   3.777   6.375   3.643  0.8349 -0.0206  1.2058
17942SOL    HW155267   3.754   6.310   3.577  1.4196 -0.4613  1.4253
17942SOL    HW255268   3.697   6.386   3.695  0.1050  0.9455 -0.0627
17943SOL     OW55269   1.527   7.550   7.111  0.2028  0.3617 -0.0665
17943SOL    HW155270   1.618   7.559   7.137  0.4456 -1.1229 -0.2872
17943SOL    HW255271   1.492   7.639   7.113  2.1922  1.2849 -1.9881
17944SOL     OW55272   0.584   5.569   9.297 -0.7018 -0.4360  0.0777
17944SOL    HW155273   0.502   5.617   9.285 -0.1837  0.2020 -0.9832
17944SOL    HW255274   0.652   5.627   9.263  0.0215 -1.6083 -0.5444
17945SOL     OW55275   2.225   0.059  12.279  0.1575  0.3750 -0.3074
17945SOL    HW155276   2.306   0.020  12.310 -0.3281  0.6440  1.4224
17945SOL    HW255277   2.190  -0.004  12.216  1.3907 -0.0275 -0.6097
17946SOL     OW55278   6.952   4.217   4.715  0.1620  0.1608  0.0493
17946SOL    HW155279   6.934   4.289   4.654  0.1773 -0.8343 -1.1912
17946SOL    HW255280   6.907   4.241   4.795 -1.4318  0.6795 -0.9545
17947SOL     OW55281   0.072   1.424  11.322  0.1747  0.1033 -0.0439
17947SOL    HW155282  -0.017   1.404  11.294  0.9543 -1.8055 -1.3907
17947SOL    HW255283   0.078   1.390  11.411 -0.2885 -0.2932 -0.1616
17948SOL     OW55284   4.784   6.201   2.470 -0.1759  0.1933  0.0848
17948SOL    HW155285   4.720   6.206   2.542  0.7135  3.5718  0.8226
17948SOL    HW255286   4.867   6.184   2.514 -0.0524 -0.8258 -0.5228
17949SOL     OW55287   2.018   7.440   1.563  0.4860  0.3834 -0.0524
17949SOL    HW155288   2.005   7.533   1.550  1.7794  0.4374 -1.2589
17949SOL    HW255289   2.047   7.407   1.478 -2.6412 -1.6866 -0.4798
17950SOL     OW55290   7.351   1.564  10.501 -0.3911 -0.1698 -0.2903
17950SOL    HW155291   7.367   1.557  10.595  0.7628 -0.9696 -0.5131
17950SOL    HW255292   7.436   1.588  10.464 -0.9797  0.8006 -1.0773
17951SOL     OW55293   1.229   2.637   9.201  0.0064  0.2180  0.0249
17951SOL    HW155294   1.307   2.598   9.163 -0.2867 -1.1640  0.7747
17951SOL    HW255295   1.260   2.719   9.239  1.0967 -0.2921  0.2785
17952SOL     OW55296   5.528   1.614  12.439  0.0703  0.0749 -0.1290
17952SOL    HW155297   5.553   1.623  12.347 -0.5773  0.2004 -0.2924
17952SOL    HW255298   5.499   1.523  12.447 -0.5465  0.2597 -0.2165
17953SOL     OW55299   3.390   2.059   0.936  0.0456 -0.0056  0.2892
17953SOL    HW155300   3.326   2.030   0.871  0.1994 -1.3656  0.7009
17953SOL    HW255301   3.424   1.977   0.973  0.8090  0.7273  1.2462
17954SOL     OW55302   1.628   7.411   6.700 -0.0474  0.6020 -0.3028
17954SOL    HW155303   1.647   7.368   6.617  0.5400  2.1758 -1.0272
17954SOL    HW255304   1.610   7.502   6.676 -0.7845  0.8781  1.2041
17955SOL     OW55305   4.047   1.079  10.249  0.0595  0.9834 -0.0063
17955SOL    HW155306   4.063   1.041  10.336 -0.0349  1.0656  0.0483
17955SOL    HW255307   4.079   1.169  10.256 -1.4254  1.5163  0.4630
17956SOL     OW55308   1.174   4.353   7.147  0.3930  0.4168 -0.1705
17956SOL    HW155309   1.124   4.294   7.089 -0.4180  1.4618 -0.5579
17956SOL    HW255310   1.237   4.295   7.189 -0.2061 -0.7015 -0.7332
17957SOL     OW55311   1.704   6.494   9.081  0.0446 -0.1125  0.2902
17957SOL    HW155312   1.638   6.519   9.146 -1.3763 -0.7973 -0.8387
17957SOL    HW255313   1.702   6.398   9.080  0.6470 -0.1295 -0.1822
17958SOL     OW55314   5.714   2.625   0.852  0.0150 -0.6299  0.2699
17958SOL    HW155315   5.692   2.718   0.855  0.2424 -0.5869  0.5906
17958SOL    HW255316   5.635   2.583   0.817 -0.9702 -0.5968  2.3192
17959SOL     OW55317   4.641   7.825   1.210 -0.2363 -0.3459  0.2767
17959SOL    HW155318   4.571   7.890   1.200 -2.1204 -2.3222 -0.0676
17959SOL    HW255319   4.634   7.770   1.132  1.4404 -0.8811  0.4638
17960SOL     OW55320   7.028   0.742   0.608  0.1893  0.6656 -0.1578
17960SOL    HW155321   7.006   0.809   0.673 -0.3548  0.3061  0.0396
17960SOL    HW255322   6.944   0.699   0.589  0.4204  0.4738 -0.7693
17961SOL     OW55323   5.542   7.058   9.212  0.5820 -0.4319 -0.0719
17961SOL    HW155324   5.512   7.027   9.297  0.8183  3.0047  1.4186
17961SOL    HW255325   5.633   7.027   9.206  0.6041 -0.5887  0.9585
17962SOL     OW55326   7.387   2.596   6.939 -0.0972  0.9769 -0.2296
17962SOL    HW155327   7.434   2.587   6.856  0.5971  1.1029  0.1486
17962SOL    HW255328   7.340   2.679   6.931  0.2468  1.1623 -0.3631
17963SOL     OW55329   4.945   2.731   7.445  0.3616  0.2120 -0.1731
17963SOL    HW155330   5.003   2.684   7.504  1.5328  0.0935 -1.3613
17963SOL    HW255331   4.939   2.674   7.367 -4.0772 -1.4770  1.0718
17964SOL     OW55332   2.443   4.301   1.908 -0.0061 -0.4571 -0.1457
17964SOL    HW155333   2.385   4.326   1.836  0.1419 -1.7923 -0.7391
17964SOL    HW255334   2.494   4.228   1.874  0.3191 -0.8761  1.1974
17965SOL     OW55335   4.635   6.915   3.922  0.0686 -0.3613  0.4285
17965SOL    HW155336   4.624   6.828   3.962  1.2457  0.4095  2.6181
17965SOL    HW255337   4.571   6.970   3.967 -0.9777 -0.1324 -1.2589
17966SOL     OW55338   1.196   0.211   1.656 -0.3314  0.7060  0.6677
17966SOL    HW155339   1.279   0.231   1.700 -0.7547  1.5240  1.1289
17966SOL    HW255340   1.150   0.154   1.717 -0.1724  0.3668  0.4740
17967SOL     OW55341   2.450   1.451  11.284  0.0460  0.5528  0.2551
17967SOL    HW155342   2.441   1.382  11.350  0.6145  0.7128  0.5051
17967SOL    HW255343   2.537   1.487  11.298 -0.0629  1.0057 -0.1849
17968SOL     OW55344   4.083   2.055   6.723 -0.0905  0.2504  0.5306
17968SOL    HW155345   4.173   2.025   6.733 -0.0074  0.2296 -0.2261
17968SOL    HW255346   4.044   2.043   6.810  0.1760 -1.2357  0.4640
17969SOL     OW55347   7.874   1.173   0.167  0.2712  0.1143  0.0948
17969SOL    HW155348   7.781   1.155   0.180  0.2704  0.2377  0.2607
17969SOL    HW255349   7.911   1.089   0.140  0.1647 -0.0011  0.3082
17970SOL     OW55350   4.372   5.147   1.852 -0.2633  0.0650  0.0890
17970SOL    HW155351   4.370   5.192   1.768 -1.0955 -0.1236 -0.0013
17970SOL    HW255352   4.391   5.216   1.916  0.1550  0.2439 -0.2262
17971SOL     OW55353   3.773   0.079   9.016 -0.1974  0.4489  0.3048
17971SOL    HW155354   3.680   0.065   9.027 -0.0828  1.4937  3.5694
17971SOL    HW255355   3.783   0.174   9.010  0.6079  0.3049 -1.3502
17972SOL     OW55356   6.854   6.455   5.364 -0.2350 -0.9051 -0.0804
17972SOL    HW155357   6.894   6.542   5.364  0.5446 -1.2520 -0.8664
17972SOL    HW255358   6.765   6.470   5.397 -0.6520  0.4474 -1.6963
17973SOL     OW55359   2.789   0.665   2.869  0.4316  0.0912  0.1273
17973SOL    HW155360   2.731   0.604   2.913  0.8186 -0.6508 -0.3596
17973SOL    HW255361   2.737   0.744   2.857  0.3479  0.3512  1.9778
17974SOL     OW55362   7.127   3.129  11.778  0.1592  0.4241  0.0745
17974SOL    HW155363   7.059   3.087  11.726 -0.5998 -0.4069  1.6583
17974SOL    HW255364   7.209   3.107  11.733 -0.5506  1.1114 -1.6425
17975SOL     OW55365   0.435   5.693   4.005  0.1081  0.1283  0.5874
17975SOL    HW155366   0.450   5.671   4.097  1.0459 -0.9276  0.1914
17975SOL    HW255367   0.373   5.626   3.975 -1.4546  1.3911  0.8273
17976SOL     OW55368   7.257   4.558   0.368 -0.3248 -0.2771 -0.5599
17976SOL    HW155369   7.188   4.493   0.366 -0.5092 -0.0981 -2.8959
17976SOL    HW255370   7.218   4.634   0.411 -1.7764 -0.0319 -2.2230
17977SOL     OW55371   6.284   5.619   4.784  0.2239  0.0894 -0.0783
17977SOL    HW155372   6.276   5.629   4.690  1.3626  0.8254 -0.1063
17977SOL    HW255373   6.333   5.537   4.795 -0.3084 -0.2350 -0.1099
17978SOL     OW55374   3.243   4.151   2.054 -0.4191 -0.2948  0.0045
17978SOL    HW155375   3.177   4.143   2.123 -0.1272 -2.8013  0.1035
17978SOL    HW255376   3.214   4.090   1.986  0.9434 -0.2400 -0.6693
17979SOL     OW55377   5.061   2.168  10.830  0.0230 -0.1091  0.6934
17979SOL    HW155378   5.036   2.078  10.851  1.2340 -0.3855  1.0105
17979SOL    HW255379   5.033   2.180  10.739  0.0883 -0.8868  0.5701
17980SOL     OW55380   0.646   2.802   2.425  0.2388 -0.4263 -0.0658
17980SOL    HW155381   0.616   2.860   2.495  0.4429  0.7958 -0.9580
17980SOL    HW255382   0.565   2.768   2.387  0.0518  0.5083 -0.5345
17981SOL     OW55383   0.288   3.479   0.250 -0.0008  0.1780 -0.3727
17981SOL    HW155384   0.218   3.430   0.293  0.7052 -0.8364 -0.3597
17981SOL    HW255385   0.259   3.571   0.255  0.0200  0.1149  2.2463
17982SOL     OW55386   3.951   0.999   4.691  0.5792 -0.3739 -0.7932
17982SOL    HW155387   3.943   1.084   4.649  0.0997  0.2240  0.4653
17982SOL    HW255388   3.898   1.006   4.770  0.3296 -1.9291 -0.7875
17983SOL     OW55389   5.947   0.187  11.966 -0.5273  0.3376  0.4491
17983SOL    HW155390   5.881   0.134  12.010 -0.3873 -0.6380 -0.4649
17983SOL    HW255391   6.031   0.149  11.994 -0.4194  0.1651 -0.0970
17984SOL     OW55392   4.304   0.528   1.638  0.4268  0.2640  0.4185
17984SOL    HW155393   4.375   0.573   1.683  0.8669  1.0029 -0.9603
17984SOL    HW255394   4.325   0.435   1.646  0.7889  0.4103  1.2269
17985SOL     OW55395   3.551   0.825  12.045 -0.4677 -0.9537 -0.3353
17985SOL    HW155396   3.584   0.735  12.048 -1.0638 -1.2356  3.7971
17985SOL    HW255397   3.625   0.879  12.070 -0.9604 -0.7308  0.7121
17986SOL     OW55398   7.118   3.992   7.516 -0.0278  0.2161 -0.1219
17986SOL    HW155399   7.152   3.973   7.428 -1.2062 -0.7030 -0.4115
17986SOL    HW255400   7.043   3.932   7.526  0.8435 -0.6196  2.0047
17987SOL     OW55401   2.380   4.935   2.050 -0.5301  0.5286 -0.0683
17987SOL    HW155402   2.292   4.957   2.018 -0.3160 -0.6216 -1.5486
17987SOL    HW255403   2.434   4.931   1.972  0.4287 -0.6371  0.6164
17988SOL     OW55404   2.262   5.698   1.211  0.2699  0.0438  0.1526
17988SOL    HW155405   2.190   5.645   1.245 -0.7288  1.6985  0.7453
17988SOL    HW255406   2.273   5.669   1.121 -1.0728 -0.3403  0.0975
17989SOL     OW55407   7.561   6.892  10.406 -0.7917 -0.1167  0.0245
17989SOL    HW155408   7.553   6.883  10.311 -0.9105  0.3128 -0.0082
17989SOL    HW255409   7.507   6.822  10.442 -1.4581  0.2644 -0.2185
17990SOL     OW55410   0.221   4.155  10.082 -0.3894  0.1176  0.2688
17990SOL    HW155411   0.307   4.177  10.117  0.1472 -0.6884 -0.5230
17990SOL    HW255412   0.235   4.079  10.027 -1.4052  0.6865 -0.8379
17991SOL     OW55413   7.400   1.854   5.294 -0.8788  0.1919  0.3680
17991SOL    HW155414   7.338   1.803   5.243 -0.0742 -0.3929 -0.0455
17991SOL    HW255415   7.444   1.911   5.230 -0.7268  0.3391  0.5983
17992SOL     OW55416   6.618   0.244   1.218 -0.2781  0.3365  0.3769
17992SOL    HW155417   6.694   0.237   1.162 -0.2735 -0.2890  0.4591
17992SOL    HW255418   6.556   0.180   1.183 -0.7853  0.8667  0.2841
17993SOL     OW55419   3.971   7.520   9.491  0.2295 -0.0255  0.3397
17993SOL    HW155420   3.906   7.471   9.541  0.6821 -0.4212  0.5410
17993SOL    HW255421   4.044   7.532   9.551  0.2996  0.5324  0.1556
17994SOL     OW55422   3.686   7.803   0.247 -0.3440  0.2302 -0.1357
17994SOL    HW155423   3.677   7.885   0.199 -1.7629  0.6202  0.7167
17994SOL    HW255424   3.618   7.746   0.209  0.7962 -0.6590 -0.8975
17995SOL     OW55425   4.157   5.255  10.258 -0.0096  0.1626  0.2116
17995SOL    HW155426   4.063   5.269  10.250 -0.1830 -0.7163  0.5589
17995SOL    HW255427   4.196   5.341  10.246 -0.8973  0.6317  0.6485
17996SOL     OW55428   5.635   7.076   3.738  0.2290 -0.1191 -0.0033
17996SOL    HW155429   5.580   6.998   3.734 -1.4744  0.9556  1.1138
17996SOL    HW255430   5.702   7.054   3.802 -0.6348 -0.4672  0.8156
17997SOL     OW55431   0.004   0.559   3.690 -0.2004 -0.2028  0.3977
17997SOL    HW155432  -0.084   0.534   3.661 -0.2209  1.0705 -0.7346
17997SOL    HW255433   0.063   0.506   3.635 -0.2525  1.6367 -1.5677
17998SOL     OW55434   0.290   1.418   3.632  0.0509  0.7458 -0.3768
17998SOL    HW155435   0.204   1.459   3.619  0.7253  2.8767  1.3556
17998SOL    HW255436   0.271   1.339   3.684 -0.9583  0.5167 -1.0611
17999SOL     OW55437   2.143   7.924   4.783 -0.2758 -0.0372  0.3541
17999SOL    HW155438   2.054   7.959   4.780 -0.0220  0.5765 -1.0550
17999SOL    HW255439   2.196   7.997   4.814 -0.0634  0.1295 -0.3702
18000SOL     OW55440   7.503   5.349   6.878 -0.7301 -0.5773 -0.1792
18000SOL    HW155441   7.416   5.316   6.854 -0.1960 -2.8129  0.7246
18000SOL    HW255442   7.555   5.271   6.894  0.8495  0.7094  1.4393
18001SOL     OW55443   7.582   6.161   4.960 -0.2694  0.2680  0.3666
18001SOL    HW155444   7.543   6.208   4.886  0.1448 -1.6444 -1.1408
18001SOL    HW255445   7.530   6.082   4.969  1.4313 -0.9261  0.2201
18002SOL     OW55446   1.867   6.744   3.497 -0.1773  0.1080  0.1392
18002SOL    HW155447   1.848   6.658   3.459  1.0367 -0.4363  0.6888
18002SOL    HW255448   1.956   6.764   3.469 -0.8865  1.8220 -1.0525
18003SOL     OW55449   2.588   3.632   9.995 -0.5313 -0.1770 -0.1420
18003SOL    HW155450   2.549   3.709  10.038 -0.5764 -0.9432  1.2373
18003SOL    HW255451   2.663   3.667   9.948 -0.1968  0.6500  0.9530
18004SOL     OW55452   3.764   6.784  12.318  0.5372 -0.1724 -0.1866
18004SOL    HW155453   3.682   6.770  12.270  0.7266  0.2970 -0.6585
18004SOL    HW255454   3.736   6.803  12.408  0.0614  0.9683 -0.5521
18005SOL     OW55455   6.076   4.450   8.895 -0.3377  0.0010  0.2697
18005SOL    HW155456   5.994   4.498   8.886 -0.0401  1.1967  3.0845
18005SOL    HW255457   6.050   4.359   8.904 -1.4437  0.4320  1.7649
18006SOL     OW55458   2.205   0.178   2.065  0.5609  0.4964  0.1231
18006SOL    HW155459   2.239   0.268   2.068 -0.8113  1.1084 -1.4748
18006SOL    HW255460   2.231   0.146   1.979 -1.1393  0.2854 -0.3419
18007SOL     OW55461   7.880   0.027   7.121  0.3294  0.4767  0.4039
18007SOL    HW155462   7.965   0.012   7.162  0.9296  2.2532 -0.0769
18007SOL    HW255463   7.893   0.106   7.068 -1.0598 -0.3885 -1.3284
18008SOL     OW55464   1.583   2.940   4.390 -0.2084  0.2509 -0.2927
18008SOL    HW155465   1.667   2.929   4.346  1.5916 -0.8987  3.0891
18008SOL    HW255466   1.535   2.859   4.373 -0.8644  1.0232 -2.4662
18009SOL     OW55467   6.122   2.387   7.931  0.2768  0.1936 -0.4388
18009SOL    HW155468   6.036   2.345   7.917  0.3073  0.2691 -0.8647
18009SOL    HW255469   6.147   2.420   7.845 -0.0538  1.7002  0.0083
18010SOL     OW55470   3.106   4.382   7.891 -0.0273  0.2944  0.0550
18010SOL    HW155471   3.158   4.396   7.812 -0.3538  1.4543  0.0238
18010SOL    HW255472   3.160   4.326   7.946  0.5141  0.0716 -0.6908
18011SOL     OW55473   4.044   0.707   5.527  0.3395 -0.7027 -0.0847
18011SOL    HW155474   4.135   0.687   5.547  0.1578  0.7910  2.7480
18011SOL    HW255475   3.995   0.633   5.561  0.4133 -1.0035 -0.6247
18012SOL     OW55476   5.415   2.734   5.276 -0.0783 -0.4699  0.6926
18012SOL    HW155477   5.415   2.802   5.209 -2.3174  1.0356  2.0855
18012SOL    HW255478   5.499   2.743   5.320  1.2406 -1.1835 -1.5025
18013SOL     OW55479   6.196   3.049   5.040 -0.1444 -0.4298  0.3978
18013SOL    HW155480   6.198   3.136   5.081  0.7507 -0.0423 -0.4149
18013SOL    HW255481   6.171   2.989   5.110 -0.0793  0.3942  1.1434
18014SOL     OW55482   5.383   2.193   4.467 -0.0349 -0.0800  0.0794
18014SOL    HW155483   5.429   2.126   4.518  1.8212  2.0972  1.5149
18014SOL    HW255484   5.453   2.247   4.430 -1.4201  0.0946 -2.5268
18015SOL     OW55485   7.621   0.663   3.914  0.5387  0.5430  0.3330
18015SOL    HW155486   7.573   0.603   3.856  1.7928  1.4719 -1.7702
18015SOL    HW255487   7.626   0.616   3.998 -0.4826 -1.2948 -0.5708
18016SOL     OW55488   2.354   2.321   0.333  0.1187  0.0875 -0.6437
18016SOL    HW155489   2.263   2.293   0.343  0.3859 -1.8084 -2.5558
18016SOL    HW255490   2.359   2.404   0.380 -2.5974  0.2764 -0.4835
18017SOL     OW55491   4.641   1.725   9.907  0.2294 -0.2044 -0.4906
18017SOL    HW155492   4.669   1.808   9.869  1.6959  1.0365  2.9086
18017SOL    HW255493   4.721   1.673   9.912 -0.0071 -0.5008  0.4076
18018SOL     OW55494   7.657   6.903   0.498  0.0475  0.1150 -0.0072
18018SOL    HW155495   7.563   6.884   0.495 -0.1413  0.9937  0.0526
18018SOL    HW255496   7.667   6.981   0.444  0.4273  1.1880  1.5417
18019SOL     OW55497   1.243   3.567   3.265 -0.2632  0.4253 -0.1252
18019SOL    HW155498   1.170   3.507   3.247  0.5563 -0.3978 -0.8136
18019SOL    HW255499   1.302   3.555   3.191  0.4471  1.2807  0.2897
18020SOL     OW55500   2.197   4.633  10.357  0.1762  0.1385  0.0051
18020SOL    HW155501   2.233   4.722  10.349 -0.4216  0.4473  0.6098
18020SOL    HW255502   2.109   4.647  10.392 -0.2736 -0.6435 -0.7811
18021SOL     OW55503   6.759   3.446   4.292  0.2713 -0.1818  0.4976
18021SOL    HW155504   6.767   3.483   4.380  0.0087 -1.2366  0.9793
18021SOL    HW255505   6.831   3.383   4.287  1.8250  1.5892 -0.9591
18022SOL     OW55506   1.393   1.791   5.527  0.2202 -0.0929 -0.2216
18022SOL    HW155507   1.408   1.885   5.538 -1.6747  0.3165 -0.8563
18022SOL    HW255508   1.331   1.784   5.455 -1.7551 -1.6613  1.5214
18023SOL     OW55509   7.518   6.478   3.274 -0.1735 -0.6843  0.1555
18023SOL    HW155510   7.515   6.398   3.326 -0.7629 -2.0074 -1.7865
18023SOL    HW255511   7.597   6.469   3.220  0.0101  0.2735  0.2388
18024SOL     OW55512   5.080   2.879   2.110 -0.2488  0.7817 -0.0675
18024SOL    HW155513   5.070   2.937   2.186  2.0668 -0.0157  0.9469
18024SOL    HW255514   5.072   2.936   2.034  1.0190  2.3066  0.8872
18025SOL     OW55515   3.232   5.885   6.192 -0.3199  0.9343  0.3761
18025SOL    HW155516   3.173   5.875   6.117 -0.3799  0.7597  0.4440
18025SOL    HW255517   3.269   5.972   6.183  0.8403  0.3672 -0.6946
18026SOL     OW55518   3.187   4.684   9.593  0.2815  0.0095 -0.5113
18026SOL    HW155519   3.133   4.635   9.655  0.1497  0.9209  0.1132
18026SOL    HW255520   3.138   4.681   9.511 -0.3744  0.2295 -0.1322
18027SOL     OW55521   3.377   6.521   3.165  0.5722  0.3439  0.6005
18027SOL    HW155522   3.400   6.612   3.146  0.3646  0.1892 -0.4493
18027SOL    HW255523   3.345   6.486   3.082  2.2207 -1.1759  0.5151
18028SOL     OW55524   1.599   4.878   4.592 -0.1459  0.0545  0.3459
18028SOL    HW155525   1.583   4.972   4.604 -0.9173 -0.2649  2.2826
18028SOL    HW255526   1.515   4.844   4.559  0.6808  0.2620 -2.1775
18029SOL     OW55527   0.827   7.142   5.095  0.2593 -0.1488 -0.2019
18029SOL    HW155528   0.810   7.059   5.138  2.5204 -0.7698 -0.4038
18029SOL    HW255529   0.816   7.124   5.001  1.4946 -0.4721 -0.3085
18030SOL     OW55530   1.796   7.557  12.187 -0.1941  0.3638 -0.2066
18030SOL    HW155531   1.777   7.464  12.181  0.3111  0.3491 -2.6284
18030SOL    HW255532   1.892   7.562  12.187 -0.2166  0.8895 -0.3088
18031SOL     OW55533   0.697   4.451   0.690  0.6625 -0.2204  0.4421
18031SOL    HW155534   0.707   4.544   0.710  0.7883 -0.1443  0.0365
18031SOL    HW255535   0.747   4.438   0.609  0.5556 -0.6176  0.4358
18032SOL     OW55536   7.690   0.929   3.884  0.4327 -0.3259 -0.0406
18032SOL    HW155537   7.749   0.948   3.957  1.6850 -2.1489 -0.5133
18032SOL    HW255538   7.659   0.841   3.902 -0.3488 -0.2542 -1.0126
18033SOL     OW55539   3.108   2.445   7.289 -0.0194  0.6011 -0.7851
18033SOL    HW155540   3.169   2.505   7.331 -0.8849  0.9904 -0.0574
18033SOL    HW255541   3.032   2.443   7.347 -0.1147 -1.0010 -0.9325
18034SOL     OW55542   2.558   4.928  12.367  0.6251 -0.1234  0.2892
18034SOL    HW155543   2.607   4.911  12.287 -0.4786  0.0541 -0.4395
18034SOL    HW255544   2.618   4.979  12.421  0.3697  2.4650 -1.6819
18035SOL     OW55545   4.566   7.859   4.300  0.0148 -0.1768 -0.0606
18035SOL    HW155546   4.510   7.923   4.344  0.0115  0.6836 -1.2859
18035SOL    HW255547   4.554   7.778   4.351 -1.3044  0.3321  0.4807
18036SOL     OW55548   0.455   5.732   8.128 -0.1450  0.7411 -0.5267
18036SOL    HW155549   0.524   5.681   8.087 -2.1522 -1.4383 -1.3816
18036SOL    HW255550   0.495   5.767   8.208  1.6811 -1.1220 -0.5614
18037SOL     OW55551   5.789   2.158   1.651 -0.2355  0.1633 -0.2372
18037SOL    HW155552   5.847   2.104   1.706  0.6129  1.4730  0.2091
18037SOL    HW255553   5.714   2.101   1.632 -0.1859 -0.6094  1.6287
18038SOL     OW55554   6.089   6.508   4.357 -0.5378 -0.2047  0.5321
18038SOL    HW155555   6.173   6.553   4.368 -0.7339  0.0238  1.1564
18038SOL    HW255556   6.057   6.497   4.447 -0.6263 -1.3314  0.3782
18039SOL     OW55557   2.557   1.380   0.453 -0.1234  0.6062 -0.6907
18039SOL    HW155558   2.589   1.470   0.465  2.4428 -0.1973 -0.7434
18039SOL    HW255559   2.519   1.380   0.365  0.4999  1.4790 -0.9777
18040SOL     OW55560   7.129   5.206   1.749 -0.3086  0.5973  0.1741
18040SOL    HW155561   7.037   5.233   1.752 -0.2325  0.8435  0.3566
18040SOL    HW255562   7.167   5.258   1.677 -0.1582  0.9991  0.5359
18041SOL     OW55563   3.239   1.881   3.676  0.7156 -0.2296  0.2966
18041SOL    HW155564   3.186   1.955   3.644  2.5886  0.7367 -0.7050
18041SOL    HW255565   3.247   1.896   3.770 -1.0587 -0.6144  0.5536
18042SOL     OW55566   6.222   5.614   6.976 -0.8660 -0.0743  0.4972
18042SOL    HW155567   6.204   5.663   6.895 -0.4789 -0.8584 -0.0777
18042SOL    HW255568   6.276   5.674   7.028  2.8599 -1.0935 -1.7586
18043SOL     OW55569   6.905   7.121   7.080  0.2622  0.2817 -0.0395
18043SOL    HW155570   6.975   7.105   7.143  0.3874  2.8821  0.6284
18043SOL    HW255571   6.924   7.062   7.007  2.5338  0.1249  0.6022
18044SOL     OW55572   4.123   7.354   4.065 -0.8284  0.2170  0.8445
18044SOL    HW155573   4.065   7.306   4.005 -1.2131  0.3881  1.0777
18044SOL    HW255574   4.149   7.289   4.130 -0.8710  0.1760  0.8209
18045SOL     OW55575   6.666   6.490   3.052  0.1411  0.7077  0.1473
18045SOL    HW155576   6.619   6.509   3.133 -1.1937 -0.4267 -0.3348
18045SOL    HW255577   6.598   6.471   2.988  1.1459  1.9739 -1.3827
18046SOL     OW55578   5.894   4.411   0.637 -0.4265 -0.1504 -0.0014
18046SOL    HW155579   5.839   4.411   0.559  1.0744  0.3543 -1.1072
18046SOL    HW255580   5.955   4.339   0.624  0.6982  0.7539  0.0285
18047SOL     OW55581   4.804   6.175  11.251  0.1888  0.1842 -0.2538
18047SOL    HW155582   4.821   6.122  11.328 -3.5952 -2.4483 -0.9436
18047SOL    HW255583   4.868   6.146  11.186  0.1979 -1.2984  0.3967
18048SOL     OW55584   1.604   4.133   6.959  0.8712 -0.1691  0.0510
18048SOL    HW155585   1.615   4.087   6.876 -1.2139  1.0233 -0.9649
18048SOL    HW255586   1.545   4.206   6.939  0.9558  0.6464  2.4166
18049SOL     OW55587   3.960   4.869   2.630  0.3420 -0.1863  0.2196
18049SOL    HW155588   3.894   4.843   2.694  0.4400 -2.1339 -0.4288
18049SOL    HW255589   4.037   4.892   2.684 -0.6802  1.8078  0.9547
18050SOL     OW55590   1.296   5.433   2.986  0.4489 -0.3273 -0.1828
18050SOL    HW155591   1.224   5.497   2.979  1.5451  0.9619  0.0064
18050SOL    HW255592   1.257   5.351   2.955 -1.1090  0.3318 -0.0967
18051SOL     OW55593   1.418   2.078   0.065  0.6174 -0.3387 -0.4436
18051SOL    HW155594   1.441   2.024  -0.011  1.3652 -0.3110 -0.2449
18051SOL    HW255595   1.413   2.167   0.030  1.3179 -0.2746 -0.4011
18052SOL     OW55596   0.154   0.463   6.700  0.0526  0.2478  0.0046
18052SOL    HW155597   0.206   0.432   6.774  0.4059  0.0081 -0.3374
18052SOL    HW255598   0.200   0.541   6.669  0.7101 -0.4552 -0.8381
18053SOL     OW55599   4.086   6.342   8.873 -0.2862  0.5197  0.1025
18053SOL    HW155600   4.141   6.275   8.913 -0.8301  0.0706  0.0976
18053SOL    HW255601   4.088   6.414   8.936  1.6242  1.1787 -0.6251
18054SOL     OW55602   4.076   4.468   9.230  0.0410 -0.2305 -0.9938
18054SOL    HW155603   4.003   4.468   9.168  0.0807 -0.0157 -1.0430
18054SOL    HW255604   4.131   4.542   9.202  0.0832 -0.1611 -0.7304
18055SOL     OW55605   6.491   6.843   8.964 -0.4701 -0.8667  0.0703
18055SOL    HW155606   6.549   6.892   9.023 -1.4482 -0.5528  0.7932
18055SOL    HW255607   6.528   6.857   8.877 -0.1150  0.2727  0.3886
18056SOL     OW55608   7.553   6.497   2.456 -0.2500  0.2243  0.0212
18056SOL    HW155609   7.460   6.520   2.463 -0.8054 -0.5398 -3.0552
18056SOL    HW255610   7.593   6.572   2.414  0.6950  0.7548  1.7883
18057SOL     OW55611   7.774   2.453   1.819  0.1249  0.5036  1.0116
18057SOL    HW155612   7.682   2.461   1.796  0.1570 -0.1003  0.6517
18057SOL    HW255613   7.782   2.500   1.902 -0.5245  0.4711  1.0978
18058SOL     OW55614   4.491   1.560  10.867  0.2013 -0.3306 -0.2753
18058SOL    HW155615   4.413   1.511  10.892 -0.3376  0.6707  0.0597
18058SOL    HW255616   4.551   1.550  10.941 -0.8175  1.4091  0.8503
18059SOL     OW55617   3.967   4.162   3.014  0.0111  0.0733 -0.5659
18059SOL    HW155618   4.017   4.204   3.084  0.0445 -0.7647 -0.0709
18059SOL    HW255619   3.957   4.071   3.043 -0.0061 -0.2790 -1.6355
18060SOL     OW55620   4.663   4.067   2.240 -0.0709 -0.1533  0.1246
18060SOL    HW155621   4.751   4.058   2.275  0.3873  1.5939 -0.4415
18060SOL    HW255622   4.606   4.030   2.307  1.0949 -1.5849  0.3573
18061SOL     OW55623   0.641   1.472   6.605 -0.3112 -0.1896 -0.3549
18061SOL    HW155624   0.683   1.447   6.686 -0.7109 -0.2603 -0.1662
18061SOL    HW255625   0.614   1.389   6.565  0.5917 -0.2061 -0.9501
18062SOL     OW55626   5.008   7.169  12.014  0.0061 -0.2024 -0.0265
18062SOL    HW155627   5.044   7.161  11.926  1.2151  0.5797  0.3707
18062SOL    HW255628   4.976   7.259  12.019  0.2500 -0.1406  0.4459
18063SOL     OW55629   6.801   6.633  11.078 -0.2010 -0.3848  0.6313
18063SOL    HW155630   6.878   6.608  11.130  1.2728  2.0172 -0.2021
18063SOL    HW255631   6.837   6.662  10.994 -2.0982  0.0349 -0.0910
18064SOL     OW55632   6.324   7.671  11.146 -0.4062 -0.0615 -0.1209
18064SOL    HW155633   6.335   7.576  11.143 -3.4707 -0.5337  0.6032
18064SOL    HW255634   6.344   7.695  11.236  1.9642  0.3239 -0.6702
18065SOL     OW55635   5.420   5.726  12.230  0.6083  0.0169  0.1531
18065SOL    HW155636   5.367   5.770  12.297 -0.1713 -1.1915  0.3578
18065SOL    HW255637   5.459   5.651  12.276 -0.8098 -1.4776 -0.9630
18066SOL     OW55638   4.945   2.118  12.212  0.0652 -0.6077  0.2109
18066SOL    HW155639   4.855   2.149  12.211 -0.5661 -2.2975  0.1106
18066SOL    HW255640   4.972   2.119  12.120 -0.3108 -1.2856  0.0851
18067SOL     OW55641   6.574   3.735   4.916  0.9186  0.1240 -0.0920
18067SOL    HW155642   6.602   3.662   4.860 -0.0902 -0.5845  0.2996
18067SOL    HW255643   6.500   3.774   4.869  0.9357  0.3898  0.0971
18068SOL     OW55644   3.656   0.352  11.843  0.2121  0.0412 -0.1163
18068SOL    HW155645   3.566   0.320  11.835  0.4336 -0.7980  0.5624
18068SOL    HW255646   3.688   0.356  11.753 -0.1760 -0.6402 -0.2922
18069SOL     OW55647   5.762   6.985   8.298  0.3327  0.0432 -0.0093
18069SOL    HW155648   5.815   6.905   8.304 -0.1693 -0.2804  0.1021
18069SOL    HW255649   5.771   7.026   8.385 -0.2826 -0.4471  0.2915
18070SOL     OW55650   2.763   1.108   3.895 -0.3272  0.2599  0.0960
18070SOL    HW155651   2.721   1.177   3.844  0.7771  1.1221  0.3263
18070SOL    HW255652   2.840   1.150   3.933  0.7925 -1.2977 -0.3774
18071SOL     OW55653   5.492   6.897   4.903 -0.2315 -0.4514  0.3405
18071SOL    HW155654   5.466   6.964   4.966 -0.2667  0.7983 -0.9513
18071SOL    HW255655   5.410   6.873   4.858 -0.1609 -1.1115  0.5539
18072SOL     OW55656   6.269   2.897   7.188 -0.2483  0.2699 -0.0658
18072SOL    HW155657   6.232   2.809   7.178  2.6978 -1.2860  1.3074
18072SOL    HW255658   6.290   2.904   7.281  0.4066  2.0888 -0.3161
18073SOL     OW55659   5.817   4.940  11.380  0.1087 -0.1459 -0.4286
18073SOL    HW155660   5.888   4.952  11.442 -0.7902 -0.1051  0.6256
18073SOL    HW255661   5.745   4.992  11.416 -0.9299 -1.3841 -0.6602
18074SOL     OW55662   4.008   5.950   3.989 -0.2254 -0.4304 -0.3826
18074SOL    HW155663   4.009   5.856   3.971  0.4153 -0.1565 -1.9265
18074SOL    HW255664   4.025   5.956   4.083 -0.7153 -1.8639 -0.1735
18075SOL     OW55665   4.619   5.055   3.912 -0.3976  0.0998 -0.0864
18075SOL    HW155666   4.675   5.115   3.862  2.3624 -2.7141 -0.6911
18075SOL    HW255667   4.616   5.093   4.000  1.0702  1.2221 -0.4802
18076SOL     OW55668   5.222   3.129   3.635 -0.1623  0.6917  0.1862
18076SOL    HW155669   5.235   3.223   3.621 -1.2508  0.8859  0.4097
18076SOL    HW255670   5.292   3.105   3.695  0.7781  1.1275 -0.6971
18077SOL     OW55671   7.101   0.664   4.892  0.6671 -0.0482  0.1868
18077SOL    HW155672   7.089   0.751   4.929  1.0075  0.0273  0.1186
18077SOL    HW255673   7.016   0.644   4.851  0.7210  0.4255 -0.1657
18078SOL     OW55674   7.053   6.509   7.079  0.4035 -0.0455  0.3379
18078SOL    HW155675   7.141   6.500   7.043  0.1627  2.8484 -1.2173
18078SOL    HW255676   6.996   6.469   7.013  0.4417 -1.2912  1.0224
18079SOL     OW55677   7.008   1.901   3.414  0.3972  0.1907 -1.2150
18079SOL    HW155678   6.989   1.959   3.340 -0.6066  0.4961 -0.7230
18079SOL    HW255679   6.938   1.835   3.412 -0.4139  0.9610  0.2344
18080SOL     OW55680   4.046   1.433   0.819 -0.1332 -0.2970  0.6701
18080SOL    HW155681   4.064   1.364   0.882  1.4022  1.9338  2.8814
18080SOL    HW255682   3.951   1.443   0.820 -0.1823 -0.5784  2.4394
18081SOL     OW55683   0.134   4.234   8.754  0.5143  0.0178  0.2180
18081SOL    HW155684   0.097   4.238   8.666  0.8976  0.8384  0.0907
18081SOL    HW255685   0.159   4.142   8.765 -1.7287 -0.6353  0.3854
18082SOL     OW55686   4.299   2.424   4.794  0.6172 -0.4117 -0.3563
18082SOL    HW155687   4.390   2.406   4.816  0.4996 -0.8392 -0.1978
18082SOL    HW255688   4.292   2.405   4.701  0.2496 -2.3270  0.0060
18083SOL     OW55689   7.497   2.891   0.609  0.3856 -0.7875 -0.6768
18083SOL    HW155690   7.452   2.956   0.663  1.5013 -0.0493 -0.6101
18083SOL    HW255691   7.587   2.923   0.601  0.3343 -0.9930 -2.7585
18084SOL     OW55692   0.214   6.536   0.826  0.0743 -0.1655  0.6120
18084SOL    HW155693   0.182   6.548   0.736  0.4693 -0.2778  0.4538
18084SOL    HW255694   0.198   6.621   0.868  0.5162  0.1081  0.2385
18085SOL     OW55695   7.953   7.588  10.553  0.2512 -0.0829  0.6112
18085SOL    HW155696   7.934   7.574  10.646 -0.5485  0.3144  0.5136
18085SOL    HW255697   7.902   7.666  10.530  0.0004 -0.5143 -0.3093
18086SOL     OW55698   3.968   2.546   2.379 -0.3675 -0.2708  0.4148
18086SOL    HW155699   4.024   2.468   2.384 -0.3072 -0.2398  0.2437
18086SOL    HW255700   3.886   2.514   2.341  0.5599  0.2082 -2.1608
18087SOL     OW55701   3.054   7.600   6.347 -0.4902 -0.2768 -0.1988
18087SOL    HW155702   3.062   7.515   6.304  0.0022 -0.5811  0.4770
18087SOL    HW255703   3.112   7.594   6.423 -1.4025  0.2228  0.5534
18088SOL     OW55704   2.203   4.918   3.731 -0.7405  0.3197  0.5068
18088SOL    HW155705   2.135   4.858   3.700  0.2812  0.1576 -1.6495
18088SOL    HW255706   2.156   4.994   3.763 -1.9711 -0.3810  0.4329
18089SOL     OW55707   6.095   1.536   1.084 -0.3662  0.0107 -0.7992
18089SOL    HW155708   6.191   1.536   1.089 -0.3436  0.5894 -1.1909
18089SOL    HW255709   6.071   1.444   1.096  0.0542  0.1804  2.4083
18090SOL     OW55710   6.344   3.463   0.261  0.1050  0.0050 -0.1108
18090SOL    HW155711   6.269   3.466   0.320  0.8713  0.9037  0.8565
18090SOL    HW255712   6.401   3.395   0.298  0.6544  0.6710  0.2829
18091SOL     OW55713   2.510   4.998   8.224  0.5087  0.3976 -0.5619
18091SOL    HW155714   2.504   4.903   8.223 -1.0450  0.4364  1.0656
18091SOL    HW255715   2.575   5.018   8.291  0.1095  0.5020 -0.2053
18092SOL     OW55716   2.150   3.622  11.697 -0.4214 -0.3347 -0.0205
18092SOL    HW155717   2.213   3.555  11.670  0.2352  0.4683 -0.5261
18092SOL    HW255718   2.187   3.659  11.777  0.8148  1.4867 -1.3542
18093SOL     OW55719   0.577   3.289   7.965 -0.1095 -0.2623  0.1226
18093SOL    HW155720   0.517   3.232   8.013 -1.8866  1.4088  0.0225
18093SOL    HW255721   0.533   3.303   7.880  0.4574  0.9187  0.0010
18094SOL     OW55722   0.916   4.737   4.939 -0.7591 -0.2635 -0.1633
18094SOL    HW155723   0.983   4.800   4.914 -0.1856 -0.1934  1.4659
18094SOL    HW255724   0.912   4.742   5.035 -1.4556 -1.9305 -0.0657
18095SOL     OW55725   0.188   6.502  12.421 -0.1240 -0.0360  0.3310
18095SOL    HW155726   0.151   6.509  12.509  0.7268 -3.8968  1.1575
18095SOL    HW255727   0.281   6.517  12.433 -0.2335  1.2641 -0.2897
18096SOL     OW55728   0.016   6.397   3.397 -0.0507  0.5397 -0.3448
18096SOL    HW155729   0.107   6.368   3.403 -0.3032 -0.5122 -1.2588
18096SOL    HW255730  -0.035   6.317   3.394 -0.8295  1.0530 -2.2612
18097SOL     OW55731   7.472   3.109  12.058 -0.4037 -0.3987 -0.0756
18097SOL    HW155732   7.478   3.086  11.965  2.2760 -2.1570  0.4226
18097SOL    HW255733   7.505   3.199  12.063 -1.4033  0.0342 -0.8929
18098SOL     OW55734   7.417   1.368   8.112  0.0539  0.3235  0.0364
18098SOL    HW155735   7.343   1.320   8.075 -1.0145  1.3457  0.7820
18098SOL    HW255736   7.415   1.453   8.068  0.5277  0.5137  0.3753
18099SOL     OW55737   3.030   0.954   4.581 -0.4951  0.5062 -0.0647
18099SOL    HW155738   3.124   0.968   4.594  0.0739 -1.4665 -1.5660
18099SOL    HW255739   2.996   0.934   4.668  0.5109  1.0568  0.4705
18100SOL     OW55740   2.814   4.315  10.147  0.1027 -0.3922 -0.0492
18100SOL    HW155741   2.728   4.337  10.111 -0.7809 -2.1135  0.8786
18100SOL    HW255742   2.824   4.222  10.127  0.5228 -0.8821  2.2266
18101SOL     OW55743   4.571   3.869  10.974 -0.3356  0.0484  0.0193
18101SOL    HW155744   4.542   3.916  11.052 -0.7312 -0.3868  0.1422
18101SOL    HW255745   4.590   3.937  10.910  2.3337  0.5816  1.2302
18102SOL     OW55746   6.330   6.550   0.796  0.8877  0.0029 -0.0665
18102SOL    HW155747   6.302   6.501   0.719  2.7063  0.8673 -1.3737
18102SOL    HW255748   6.382   6.623   0.760 -1.4053  2.7567  1.7748
18103SOL     OW55749   5.163   1.016   0.182  0.4538 -0.1520  0.1954
18103SOL    HW155750   5.147   1.022   0.276  2.3085 -0.0390  0.5244
18103SOL    HW255751   5.155   1.107   0.151 -0.3196 -0.2114  0.1971
18104SOL     OW55752   3.276   6.787   9.943 -0.3728 -0.0339 -0.3635
18104SOL    HW155753   3.251   6.870   9.985  0.3642  0.1382 -0.2464
18104SOL    HW255754   3.360   6.806   9.902  0.9999 -1.3582  1.6885
18105SOL     OW55755   7.097   0.558   5.389 -0.3605  0.4818 -0.6775
18105SOL    HW155756   7.104   0.534   5.297  1.2485 -1.4279 -0.1250
18105SOL    HW255757   7.162   0.627   5.401  1.6292 -1.3173 -0.4379
18106SOL     OW55758   2.039   1.363  10.153  0.7235 -0.9211 -0.1703
18106SOL    HW155759   2.093   1.401  10.222  0.4287 -0.7072 -0.0575
18106SOL    HW255760   2.080   1.392  10.071  0.9447 -0.9966 -0.0873
18107SOL     OW55761   1.074   0.305  12.443 -0.3373  0.5360  0.7223
18107SOL    HW155762   1.048   0.384  12.396  0.7942  0.9973  0.8336
18107SOL    HW255763   1.156   0.329  12.486  0.4176 -0.9146  0.1623
18108SOL     OW55764   6.464   1.110   5.692 -0.0439  0.3087  0.4790
18108SOL    HW155765   6.529   1.073   5.750  0.0217 -0.1320  0.1299
18108SOL    HW255766   6.389   1.051   5.698  0.1204  0.0151 -0.1996
18109SOL     OW55767   1.171   3.367   1.991  0.0442 -0.2679 -0.2557
18109SOL    HW155768   1.191   3.299   1.926  1.1484 -0.2994  0.0931
18109SOL    HW255769   1.152   3.444   1.939 -0.7022 -0.7073 -0.6478
18110SOL     OW55770   4.442   2.489   8.721  0.1691 -0.1542 -0.0446
18110SOL    HW155771   4.356   2.498   8.762 -1.7747 -1.4974 -3.4059
18110SOL    HW255772   4.449   2.396   8.700  1.7024  0.1955 -1.2847
18111SOL     OW55773   3.525   3.820  11.908  0.2106 -0.0514  0.3205
18111SOL    HW155774   3.472   3.848  11.833  2.0140  1.6955 -0.3893
18111SOL    HW255775   3.486   3.737  11.936 -1.5822  0.1338 -1.4429
18112SOL     OW55776   0.037   2.763   2.171  0.1486  0.1848 -0.3306
18112SOL    HW155777   0.122   2.722   2.153  0.2036 -0.6213  1.6019
18112SOL    HW255778   0.058   2.856   2.178  0.9361 -0.0419  0.4621
18113SOL     OW55779   7.393   1.032  11.580 -0.4285  0.1720 -0.1769
18113SOL    HW155780   7.405   1.003  11.671  1.0789 -0.6961 -0.6233
18113SOL    HW255781   7.407   1.127  11.584 -1.8442  0.3814  0.7080
18114SOL     OW55782   0.803   7.558   3.476 -0.8787 -0.1876 -0.5544
18114SOL    HW155783   0.893   7.550   3.509 -0.8288  0.3170 -0.5597
18114SOL    HW255784   0.764   7.472   3.492 -0.9824  0.1389  1.1627
18115SOL     OW55785   5.596   4.663   0.432 -0.1125 -0.1408  0.2414
18115SOL    HW155786   5.579   4.659   0.338 -2.9041 -0.3570  0.6572
18115SOL    HW255787   5.672   4.720   0.441 -0.8623  1.3457 -2.0523
18116SOL     OW55788   1.342   7.041   8.912 -0.2404 -0.5496 -0.1812
18116SOL    HW155789   1.322   7.102   8.983  1.9130 -0.9540  0.8672
18116SOL    HW255790   1.293   7.075   8.837  0.5728  2.3172  0.4346
18117SOL     OW55791   0.267   3.629   7.699 -0.1173  0.0673 -0.3977
18117SOL    HW155792   0.340   3.655   7.644  0.5896 -1.3484 -0.1833
18117SOL    HW255793   0.308   3.603   7.782 -1.1158  1.7203  0.6678
18118SOL     OW55794   1.969   7.117   9.839 -0.1468  0.1162  0.2082
18118SOL    HW155795   1.884   7.121   9.881 -0.0712 -0.1928  0.3924
18118SOL    HW255796   1.950   7.125   9.745 -0.6029 -2.2875  0.0306
18119SOL     OW55797   5.916   1.950   2.890  0.0558  0.4374 -0.3932
18119SOL    HW155798   5.898   2.012   2.820 -0.5319  0.4252 -0.2582
18119SOL    HW255799   5.956   2.004   2.959  0.5730  0.4600 -0.7037
18120SOL     OW55800   6.620   4.002   5.815  0.1768  0.0210  0.1279
18120SOL    HW155801   6.536   3.970   5.848  0.5060 -0.3825  0.5961
18120SOL    HW255802   6.684   3.937   5.846  0.8154  0.9092  0.7354
18121SOL     OW55803   3.669   2.201  11.296 -0.2135 -0.2403  0.0714
18121SOL    HW155804   3.651   2.183  11.388 -0.6147  1.0462  0.2619
18121SOL    HW255805   3.583   2.216  11.257 -0.1169 -1.5008 -0.7030
18122SOL     OW55806   0.126   7.546   7.697 -0.4414 -0.0949 -0.0809
18122SOL    HW155807   0.177   7.551   7.778 -0.8119  0.6766  0.1174
18122SOL    HW255808   0.035   7.555   7.726 -0.6741 -1.1202 -0.4629
18123SOL     OW55809   5.044   0.464   5.685  0.3615 -0.8781  0.0282
18123SOL    HW155810   5.011   0.377   5.662  1.2018 -0.4556 -3.2629
18123SOL    HW255811   5.062   0.506   5.601 -0.3221  2.6537  1.4873
18124SOL     OW55812   1.879   5.700   4.919  0.2277 -0.1080  0.0351
18124SOL    HW155813   1.875   5.632   4.852  0.1668  0.1815 -0.2586
18124SOL    HW255814   1.788   5.723   4.936  0.2849  1.1817 -1.1988
18125SOL     OW55815   5.501   1.423  10.031  0.2464  0.4077  0.5072
18125SOL    HW155816   5.420   1.473  10.017  1.1079  1.4892 -0.7721
18125SOL    HW255817   5.568   1.471   9.983  1.2117 -1.7318 -0.4170
18126SOL     OW55818   5.909   7.510   2.973 -0.7014  0.5300 -0.4571
18126SOL    HW155819   5.820   7.475   2.971 -1.3819  2.2317 -1.4815
18126SOL    HW255820   5.901   7.596   3.014  0.9174 -0.3226  1.8624
18127SOL     OW55821   7.789   5.322   7.685 -0.4527 -0.2214 -0.4873
18127SOL    HW155822   7.849   5.395   7.698 -0.6344 -0.5249  3.5736
18127SOL    HW255823   7.833   5.265   7.623  2.3390  0.7535  0.4386
18128SOL     OW55824   6.000   2.262  12.178  0.1711  0.2077  0.0359
18128SOL    HW155825   5.960   2.315  12.109  0.1386  0.6136  0.3582
18128SOL    HW255826   6.076   2.222  12.136 -1.3262 -1.7227 -0.9880
18129SOL     OW55827   3.017   0.671   3.739  0.3443  0.3700 -0.2823
18129SOL    HW155828   3.074   0.729   3.788  1.3876  0.1167 -1.1643
18129SOL    HW255829   3.074   0.601   3.707 -0.5441 -0.1593 -0.7663
18130SOL     OW55830   6.407   7.571   5.344  0.4204  0.1205  0.0609
18130SOL    HW155831   6.393   7.600   5.254 -1.7035 -2.6028 -0.6527
18130SOL    HW255832   6.478   7.507   5.337 -0.8250 -1.3015 -0.0491
18131SOL     OW55833   6.282   3.024   3.739  0.2136  0.6820  0.1732
18131SOL    HW155834   6.355   3.059   3.688  0.7230 -0.1210  0.3323
18131SOL    HW255835   6.222   3.098   3.750  1.7195  1.7996  1.3607
18132SOL     OW55836   5.797   0.474   8.021  0.0244 -0.7288  0.7283
18132SOL    HW155837   5.783   0.566   8.043 -1.1298 -1.1125  1.7197
18132SOL    HW255838   5.743   0.460   7.943  2.8112  0.2116 -1.5502
18133SOL     OW55839   0.329   4.386  12.005  0.4990 -0.1418  0.3936
18133SOL    HW155840   0.411   4.355  11.966  0.1355 -1.0338  0.3225
18133SOL    HW255841   0.267   4.315  11.990 -0.3006  0.5358  0.4251
18134SOL     OW55842   1.008   0.536   0.812 -0.0318  0.1546 -0.5788
18134SOL    HW155843   1.014   0.560   0.720 -1.1906  0.9422 -0.4605
18134SOL    HW255844   0.919   0.504   0.823 -0.0070  0.3775  0.3377
18135SOL     OW55845   1.497   4.276  11.213  0.2928  0.2699 -0.0124
18135SOL    HW155846   1.533   4.268  11.301  1.5150  0.2328 -0.5026
18135SOL    HW255847   1.570   4.255  11.154 -0.8006 -0.8921 -1.0253
18136SOL     OW55848   1.705   4.081   8.393  0.4966  0.0199 -0.8039
18136SOL    HW155849   1.639   4.051   8.330 -0.7535 -1.5228  1.1034
18136SOL    HW255850   1.769   4.010   8.397 -0.9146 -1.2421  1.5930
18137SOL     OW55851   7.906   0.748  11.044  0.3016  0.5483  0.1818
18137SOL    HW155852   7.945   0.676  11.094  0.9865 -0.9762 -2.3877
18137SOL    HW255853   7.823   0.765  11.088 -0.1243 -2.1668  0.6102
18138SOL     OW55854   5.674   4.033   0.588 -0.3919 -0.0585 -0.0157
18138SOL    HW155855   5.628   4.103   0.542 -0.4975 -0.3055 -0.2845
18138SOL    HW255856   5.663   3.956   0.533  0.8406  0.0069 -0.3973
18139SOL     OW55857   1.432   0.301  12.103  0.4004  0.3638  0.1222
18139SOL    HW155858   1.360   0.252  12.063  0.5222 -0.0236  0.3759
18139SOL    HW255859   1.471   0.241  12.166 -0.9852  1.5719  2.2457
18140SOL     OW55860   6.214   3.499   3.512 -0.4023 -0.1065 -0.6654
18140SOL    HW155861   6.225   3.583   3.468 -0.3333  0.8080  1.0101
18140SOL    HW255862   6.303   3.465   3.523 -0.3992 -0.1936 -0.9544
18141SOL     OW55863   0.031   7.815   4.729  0.0102  0.0130  0.0202
18141SOL    HW155864  -0.025   7.866   4.671  0.5317  0.6198  0.0418
18141SOL    HW255865   0.089   7.766   4.669 -1.2631 -1.5002 -0.0453
18142SOL     OW55866   7.314   3.611  12.287 -0.0540  0.1533 -0.5046
18142SOL    HW155867   7.274   3.677  12.229 -0.5188  0.7023  0.4096
18142SOL    HW255868   7.355   3.663  12.356  0.9165 -0.4783 -0.5935
18143SOL     OW55869   1.177   0.104  10.758 -0.4778 -0.7730  0.1975
18143SOL    HW155870   1.211   0.127  10.844  0.1594 -0.4061 -0.1394
18143SOL    HW255871   1.085   0.128  10.760 -0.1342  0.6305  0.2921
18144SOL     OW55872   0.716   7.902   6.393  0.5485 -0.2475  0.1449
18144SOL    HW155873   0.788   7.847   6.359  2.1819  0.6707  1.8991
18144SOL    HW255874   0.670   7.931   6.315  2.8019  0.0391 -1.1923
18145SOL     OW55875   2.296   2.872   2.697 -0.7326  0.0951 -0.4053
18145SOL    HW155876   2.268   2.784   2.722 -1.1190  0.6446  1.2138
18145SOL    HW255877   2.263   2.928   2.767  2.3152  1.1182  0.3762
18146SOL     OW55878   1.838   4.277   9.792 -0.3351  0.1759 -0.1884
18146SOL    HW155879   1.766   4.323   9.836 -0.0104 -0.8536  1.5223
18146SOL    HW255880   1.821   4.289   9.699 -1.3867  1.9798  0.1992
18147SOL     OW55881   4.146   1.977   1.363  0.3574  0.1223  0.4614
18147SOL    HW155882   4.066   2.029   1.369  0.6764  0.7285 -0.3217
18147SOL    HW255883   4.217   2.037   1.385  0.7405  0.0633 -0.5284
18148SOL     OW55884   7.582   4.549   1.648 -0.5556  0.1557  0.1717
18148SOL    HW155885   7.545   4.524   1.563  2.5498  2.5622 -2.1507
18148SOL    HW255886   7.665   4.500   1.652 -0.0732  1.0284  1.1934
18149SOL     OW55887   4.679   1.144   6.279  0.3538 -0.8110 -0.6756
18149SOL    HW155888   4.773   1.148   6.299  0.4439  0.3938 -1.2090
18149SOL    HW255889   4.637   1.124   6.362  0.9601  0.5934  0.0156
18150SOL     OW55890   4.420   3.451   8.123  0.0386  0.5388 -0.5941
18150SOL    HW155891   4.368   3.457   8.203 -0.5352  0.2915 -0.9380
18150SOL    HW255892   4.510   3.444   8.153 -0.1250  0.9554  0.0160
18151SOL     OW55893   7.223   2.130   9.302 -0.6135 -0.1999  0.3060
18151SOL    HW155894   7.277   2.188   9.356 -0.2010 -0.7148  0.4559
18151SOL    HW255895   7.145   2.182   9.281 -0.0787  0.5370  0.1123
18152SOL     OW55896   6.969   0.884   3.810 -0.3826 -0.0900  0.2265
18152SOL    HW155897   6.903   0.836   3.761 -0.0996  0.6915 -0.9650
18152SOL    HW255898   6.933   0.973   3.818 -0.2092 -0.0810  1.0228
18153SOL     OW55899   6.947   7.532   3.526  0.0164  0.3462  0.4060
18153SOL    HW155900   6.890   7.609   3.522 -0.0741  0.2412 -0.5889
18153SOL    HW255901   6.904   7.475   3.590 -1.2221  0.1232 -0.5664
18154SOL     OW55902   2.338   7.435   2.913 -0.0261  0.2959 -0.7493
18154SOL    HW155903   2.243   7.441   2.923  0.1701  2.5231  0.3312
18154SOL    HW255904   2.362   7.513   2.863  1.2739 -0.0250 -0.6686
18155SOL     OW55905   5.472   5.209   4.384  0.0458  0.2740 -0.3786
18155SOL    HW155906   5.484   5.173   4.296 -1.4346  0.6852 -0.7688
18155SOL    HW255907   5.467   5.131   4.440  0.2125 -0.0131 -0.7509
18156SOL     OW55908   4.991   2.451   0.482  0.1081 -0.3458 -0.0584
18156SOL    HW155909   4.931   2.526   0.475  0.8286  0.1122 -2.2555
18156SOL    HW255910   4.947   2.381   0.434  0.6755 -0.4460 -0.4423
18157SOL     OW55911   6.996   4.650   8.298  0.5463 -0.2603  0.4189
18157SOL    HW155912   6.968   4.589   8.366 -0.9998 -1.0658 -0.8744
18157SOL    HW255913   7.022   4.729   8.346  0.3662 -1.1066  1.9748
18158SOL     OW55914   5.672   5.443   7.364  0.3392  0.2980 -0.4946
18158SOL    HW155915   5.689   5.403   7.279 -1.4497 -0.9870 -0.3103
18158SOL    HW255916   5.640   5.531   7.342  1.9165  0.7804 -1.0131
18159SOL     OW55917   2.644   1.362   0.928 -0.1203  0.4368 -0.0113
18159SOL    HW155918   2.590   1.327   0.858  1.1395 -0.3570 -0.6063
18159SOL    HW255919   2.725   1.391   0.885  0.2236  0.9671  0.9542
18160SOL     OW55920   6.262   1.032   4.044 -0.1920 -0.0575  0.3462
18160SOL    HW155921   6.208   1.098   4.000  0.9352  0.1534 -0.7606
18160SOL    HW255922   6.314   1.081   4.108 -2.0282 -0.3962  2.2383
18161SOL     OW55923   5.203   4.354   5.881  0.2037 -0.1018 -0.4283
18161SOL    HW155924   5.195   4.337   5.787  2.2568 -1.6558 -0.4067
18161SOL    HW255925   5.220   4.267   5.919  0.6924  0.6725  1.2092
18162SOL     OW55926   6.870   1.242   3.250 -0.0473  0.0730  0.7058
18162SOL    HW155927   6.908   1.298   3.318 -0.6623  3.0699 -1.2480
18162SOL    HW255928   6.922   1.161   3.254  0.5395  0.4613  4.0229
18163SOL     OW55929   6.342   5.592   2.630 -0.0641  0.5098  0.1627
18163SOL    HW155930   6.411   5.651   2.660 -0.2824  0.6719  0.3453
18163SOL    HW255931   6.270   5.649   2.604 -0.3983  0.3161  0.6416
18164SOL     OW55932   4.537   5.490   5.563 -0.3124  0.1067  0.5878
18164SOL    HW155933   4.512   5.403   5.594 -1.1064  0.3902  0.7548
18164SOL    HW255934   4.578   5.531   5.638  0.0165 -0.0962  0.5244
18165SOL     OW55935   4.956   1.018   8.526  0.6030  0.6833  0.4129
18165SOL    HW155936   4.986   1.048   8.611  0.9155 -0.3562  0.6902
18165SOL    HW255937   4.915   0.933   8.544  0.7254  0.4253 -0.4831
18166SOL     OW55938   2.463   0.954  12.365  0.0927 -0.1792  0.1242
18166SOL    HW155939   2.519   0.882  12.395  0.8222 -0.0984 -1.0035
18166SOL    HW255940   2.485   1.027  12.422  1.0953 -0.1733 -0.2567
18167SOL     OW55941   4.930   1.101   1.214 -0.4448 -0.4728 -0.6188
18167SOL    HW155942   4.963   1.176   1.165 -1.3022  0.1197 -0.3151
18167SOL    HW255943   4.951   1.025   1.159 -1.6829  0.1907 -2.1013
18168SOL     OW55944   3.318   1.353  11.115  0.2132 -0.4224 -0.5471
18168SOL    HW155945   3.394   1.328  11.062 -0.2542 -0.3023 -1.2965
18168SOL    HW255946   3.355   1.378  11.200  0.8392 -2.1760 -0.2578
18169SOL     OW55947   6.029   2.018  10.687  0.2040 -0.3471  0.4632
18169SOL    HW155948   6.032   2.101  10.735 -1.0921 -0.9576  1.7067
18169SOL    HW255949   5.977   2.038  10.609 -2.6840 -0.5619  2.1895
18170SOL     OW55950   6.281   3.668  10.824 -0.0446 -0.3046 -0.7277
18170SOL    HW155951   6.304   3.589  10.775 -0.4297 -0.1484 -1.1664
18170SOL    HW255952   6.241   3.726  10.760  0.5899  0.4142 -0.4901
18171SOL     OW55953   3.270   2.124   6.440 -0.5046  0.5327 -0.0444
18171SOL    HW155954   3.237   2.151   6.526  0.0028 -0.4711  0.4868
18171SOL    HW255955   3.272   2.204   6.389  0.4477  1.4054  1.2994
18172SOL     OW55956   0.364   0.120   7.681 -0.1789 -0.2942  0.2399
18172SOL    HW155957   0.363   0.212   7.706  0.9750 -0.0434 -0.5500
18172SOL    HW255958   0.371   0.121   7.586 -1.2702 -1.2133  0.1277
18173SOL     OW55959   3.997   2.837   3.769  0.2311 -0.2783  0.7415
18173SOL    HW155960   4.000   2.742   3.771 -0.6896 -0.3138  0.8587
18173SOL    HW255961   3.990   2.860   3.677 -1.2035 -0.4066  0.7924
18174SOL     OW55962   7.806   6.283   8.036 -0.1674 -0.2697  0.0977
18174SOL    HW155963   7.742   6.219   8.005  0.0473  0.0476 -1.0501
18174SOL    HW255964   7.775   6.367   8.002 -0.3717  0.2478  1.4680
18175SOL     OW55965   1.482   4.228  11.982 -0.1408  0.3281  0.0953
18175SOL    HW155966   1.537   4.154  12.007  0.6221  0.9289  0.2390
18175SOL    HW255967   1.399   4.188  11.954  0.6430 -0.6631 -0.9435
18176SOL     OW55968   6.601   4.376   3.442  0.4129 -0.2231 -0.0551
18176SOL    HW155969   6.626   4.375   3.534 -4.4838  0.0826  1.5724
18176SOL    HW255970   6.611   4.285   3.413  0.7949 -0.5896  1.1813
18177SOL     OW55971   3.008   2.395   8.185 -0.7756  0.1730  0.2528
18177SOL    HW155972   3.016   2.423   8.094 -0.1498 -2.3974 -0.5608
18177SOL    HW255973   3.027   2.474   8.236  1.1624  1.1612 -1.8244
18178SOL     OW55974   5.191   3.783  10.557  0.1882 -0.5732 -0.5919
18178SOL    HW155975   5.161   3.750  10.641  0.1676 -0.3341 -0.5023
18178SOL    HW255976   5.152   3.870  10.550  1.7689  0.2407  0.0566
18179SOL     OW55977   7.667   7.054   2.862  0.1619  0.4558  0.0030
18179SOL    HW155978   7.663   7.010   2.947 -0.4459 -0.7015 -0.6077
18179SOL    HW255979   7.761   7.055   2.840  0.3526  1.0199  0.7963
18180SOL     OW55980   7.529   1.997   4.378 -0.4815  0.2201 -0.1854
18180SOL    HW155981   7.551   1.915   4.334 -0.8504  0.2177 -0.3711
18180SOL    HW255982   7.557   1.983   4.469 -0.6989 -0.1816 -0.1726
18181SOL     OW55983   1.008   5.828   6.868 -0.2154 -0.1924  0.3654
18181SOL    HW155984   1.052   5.895   6.920 -0.4549  0.6927 -0.5266
18181SOL    HW255985   0.922   5.817   6.909  0.3451 -0.9924  1.3500
18182SOL     OW55986   7.945   4.102   4.744  0.0311  0.1953 -0.3523
18182SOL    HW155987   8.030   4.121   4.704  0.9157 -1.8535  0.4676
18182SOL    HW255988   7.931   4.175   4.805  0.1105  1.7161 -2.0581
18183SOL     OW55989   5.985   1.820  10.314 -0.0686  0.1744 -0.0454
18183SOL    HW155990   6.080   1.808  10.303 -0.2736 -0.9294 -0.8708
18183SOL    HW255991   5.952   1.731  10.328 -0.9140  0.6260  0.8979
18184SOL     OW55992   1.214   4.002   3.111 -0.2858  0.1986 -0.2243
18184SOL    HW155993   1.266   4.079   3.088 -0.8442  0.8839  0.7045
18184SOL    HW255994   1.123   4.029   3.096 -0.5400  0.0432  0.9520
18185SOL     OW55995   5.306   6.917   4.244 -0.0460 -0.2660 -0.2954
18185SOL    HW155996   5.374   6.984   4.250  2.1341 -2.4710  2.0387
18185SOL    HW255997   5.348   6.844   4.198 -1.4916 -1.0267 -0.4781
18186SOL     OW55998   6.895   3.837   7.519 -0.1658  0.1377  0.7927
18186SOL    HW155999   6.837   3.902   7.559 -0.6445 -0.2150  0.6816
18186SOL    HW256000   6.862   3.827   7.430  0.4581  0.3957  0.5221
18187SOL     OW56001   2.136   0.167   0.069 -0.0870  0.1652 -0.1958
18187SOL    HW156002   2.082   0.242   0.094  0.3276  0.0427  1.1366
18187SOL    HW256003   2.103   0.141  -0.017 -1.4429  0.7325  0.1321
18188SOL     OW56004   3.467   1.361   3.726 -0.0562 -0.0478  0.4276
18188SOL    HW156005   3.380   1.380   3.762  0.8875  0.1943  2.8155
18188SOL    HW256006   3.518   1.335   3.803  1.4796 -2.1551 -1.1763
18189SOL     OW56007   4.800   4.937   1.266  0.4116  0.4105  0.0394
18189SOL    HW156008   4.713   4.937   1.228  0.8677  0.1873 -1.0476
18189SOL    HW256009   4.786   4.920   1.359 -0.6876  0.2469 -0.1485
18190SOL     OW56010   6.543   2.262   1.814 -0.1244 -0.1554 -0.2250
18190SOL    HW156011   6.463   2.235   1.857 -1.0476 -1.1971 -2.4294
18190SOL    HW256012   6.599   2.184   1.814 -0.6305 -0.5638 -1.8748
18191SOL     OW56013   7.685   3.860   1.847 -0.1729 -0.1231  0.0827
18191SOL    HW156014   7.735   3.788   1.886 -1.8200  0.2116  3.0435
18191SOL    HW256015   7.682   3.839   1.753  4.1327 -0.9102 -0.0982
18192SOL     OW56016   0.541   4.056  11.801  0.0769 -0.0119  0.5305
18192SOL    HW156017   0.583   4.081  11.883  2.2819 -0.5920 -0.3596
18192SOL    HW256018   0.610   4.061  11.735 -1.5126  0.0117 -1.2509
18193SOL     OW56019   5.951   5.997   8.604  0.5301 -0.0345 -0.1528
18193SOL    HW156020   5.913   6.077   8.568 -2.1281 -1.6568 -1.2969
18193SOL    HW256021   5.894   5.974   8.678 -1.4275 -2.8804 -2.3006
18194SOL     OW56022   0.951   5.098   5.879 -0.1679 -0.4167  0.0760
18194SOL    HW156023   0.998   5.180   5.897 -0.0825 -0.4741  0.1174
18194SOL    HW256024   0.861   5.115   5.905 -0.1515 -0.3323  0.0764
18195SOL     OW56025   6.987   3.652   1.917  0.3270 -0.1737  0.1627
18195SOL    HW156026   7.004   3.721   1.853 -0.8127  1.0618  1.1374
18195SOL    HW256027   6.953   3.579   1.866  2.1657 -0.3170 -0.9790
18196SOL     OW56028   4.894   1.923   3.217 -0.2914 -0.0158 -0.2736
18196SOL    HW156029   4.844   1.996   3.180  0.1458  1.0721  1.1818
18196SOL    HW256030   4.831   1.850   3.220 -1.8176  1.2694  1.4043
18197SOL     OW56031   4.611   7.128   7.833  0.0986  0.1210  0.2813
18197SOL    HW156032   4.698   7.100   7.806  0.0635 -0.8048  1.0634
18197SOL    HW256033   4.559   7.047   7.833 -0.3794  0.4090  1.1995
18198SOL     OW56034   1.190   0.851   5.957  0.2890 -0.0383  0.5157
18198SOL    HW156035   1.153   0.906   5.888  2.6132  1.1273  0.0895
18198SOL    HW256036   1.262   0.903   5.993  0.1036 -1.2507  2.8073
18199SOL     OW56037   7.330   1.765   1.309  0.4919 -0.2683  0.0706
18199SOL    HW156038   7.396   1.747   1.242  0.8507  2.2521 -0.3498
18199SOL    HW256039   7.251   1.787   1.258  0.2292 -0.1424  0.5301
18200SOL     OW56040   7.707   3.032   6.036 -0.3614 -0.1250  0.5354
18200SOL    HW156041   7.648   2.966   6.071 -1.0027 -0.0485 -0.3623
18200SOL    HW256042   7.675   3.115   6.072  0.3771 -0.2660  1.5729
18201SOL     OW56043   3.544   7.639   0.977  0.5115 -0.1853 -0.3515
18201SOL    HW156044   3.603   7.564   0.967  1.4104  0.2103  1.5222
18201SOL    HW256045   3.470   7.605   1.029  0.0861 -0.1793 -0.9476
18202SOL     OW56046   4.813   4.970   4.524 -0.0758 -0.0991 -0.2089
18202SOL    HW156047   4.800   5.053   4.569 -0.8677  0.7375 -1.8706
18202SOL    HW256048   4.842   4.910   4.592  1.8092  1.8424  0.8264
18203SOL     OW56049   4.679   1.349   0.732 -0.5936 -0.5141 -0.2100
18203SOL    HW156050   4.692   1.437   0.768  0.0699 -0.6325 -0.1632
18203SOL    HW256051   4.679   1.291   0.809  3.4319 -1.0997 -0.4770
18204SOL     OW56052   1.804   7.139   1.846 -0.1591 -0.0120 -0.0205
18204SOL    HW156053   1.817   7.226   1.809  0.3890 -0.3207 -0.5691
18204SOL    HW256054   1.711   7.122   1.834  0.2066 -0.6119 -2.4430
18205SOL     OW56055   4.371   4.757   5.120 -0.6254 -0.1768 -0.4044
18205SOL    HW156056   4.451   4.774   5.070  0.4895  0.0496  1.3828
18205SOL    HW256057   4.336   4.843   5.139  0.9012 -0.0177  2.1513
18206SOL     OW56058   2.096   3.834   6.302  0.2625 -0.5875  0.1944
18206SOL    HW156059   2.094   3.866   6.393  1.2836  1.3505 -0.4266
18206SOL    HW256060   2.187   3.843   6.275 -0.0096 -1.2593 -1.0107
18207SOL     OW56061   0.876   1.682   1.504  0.0509 -0.3485 -0.2672
18207SOL    HW156062   0.808   1.634   1.551 -1.3095  1.3294 -0.4322
18207SOL    HW256063   0.902   1.623   1.433 -1.0097 -1.1504 -0.0183
18208SOL     OW56064   6.321   5.795   8.865 -0.0773  0.5086 -0.2780
18208SOL    HW156065   6.398   5.843   8.895 -0.3945 -0.5294  2.5193
18208SOL    HW256066   6.283   5.851   8.798  0.7946  3.0898  1.2309
18209SOL     OW56067   1.570   2.642   2.800 -0.4982 -0.6751 -0.5651
18209SOL    HW156068   1.597   2.551   2.787 -1.1291 -0.8867 -0.4318
18209SOL    HW256069   1.594   2.661   2.890 -2.7186 -1.5704  0.2773
18210SOL     OW56070   7.576   2.591   2.279 -0.4632 -0.3161 -0.6892
18210SOL    HW156071   7.499   2.555   2.235  0.3074 -0.5864 -1.8575
18210SOL    HW256072   7.610   2.518   2.332 -0.5642 -0.4392 -0.7944
18211SOL     OW56073   2.635   4.574   7.323  0.0654  0.1654 -0.0180
18211SOL    HW156074   2.594   4.491   7.347 -1.6123  1.4818  2.0456
18211SOL    HW256075   2.677   4.604   7.404  1.0138  1.1248 -0.8458
18212SOL     OW56076   0.775   0.124   8.665 -0.6379  0.2939 -0.2660
18212SOL    HW156077   0.703   0.185   8.681  0.3985  1.2797  0.8370
18212SOL    HW256078   0.806   0.101   8.753  1.6788  1.5090 -0.6898
18213SOL     OW56079   5.732   1.835   8.366 -0.2579  0.1120 -0.1483
18213SOL    HW156080   5.671   1.818   8.438  0.3587  0.5663  0.4917
18213SOL    HW256081   5.741   1.930   8.364  1.2793  0.0061  0.5041
18214SOL     OW56082   6.408   2.230   5.732  0.3720 -0.4836 -0.2218
18214SOL    HW156083   6.396   2.135   5.739  0.0285 -0.3723  1.1837
18214SOL    HW256084   6.334   2.260   5.679  1.1997 -1.1182 -1.7922
18215SOL     OW56085   7.272   0.759   5.283 -0.6073 -0.6420  0.0772
18215SOL    HW156086   7.229   0.707   5.216 -1.4195 -0.0056  0.0822
18215SOL    HW256087   7.359   0.778   5.247 -0.4460 -1.6337 -0.0905
18216SOL     OW56088   6.884   1.864   1.520 -0.2354 -0.1557  0.0482
18216SOL    HW156089   6.874   1.959   1.520  0.2835 -0.0976  0.3591
18216SOL    HW256090   6.930   1.844   1.602  2.0010 -0.4151 -1.1714
18217SOL     OW56091   2.244   1.808   6.473  0.0549 -0.0095 -0.4773
18217SOL    HW156092   2.228   1.853   6.390  1.0075 -0.6099 -1.0057
18217SOL    HW256093   2.276   1.877   6.532  2.0290 -0.0388 -1.4356
18218SOL     OW56094   7.950   4.298   9.749 -0.2775 -0.4446  0.6356
18218SOL    HW156095   7.994   4.286   9.665 -1.3357  1.5271 -0.2977
18218SOL    HW256096   8.016   4.336   9.806 -0.2924  1.0365 -0.2751
18219SOL     OW56097   5.638   4.779   4.479  0.3533 -0.2132  0.3179
18219SOL    HW156098   5.732   4.760   4.481  0.1581 -1.5428 -1.2507
18219SOL    HW256099   5.610   4.753   4.391 -1.2559  1.4042  0.2807
18220SOL     OW56100   2.982   7.888   3.519  0.2717  0.4057  0.4474
18220SOL    HW156101   2.916   7.954   3.494 -0.3700 -0.5417 -0.4564
18220SOL    HW256102   2.987   7.894   3.614 -2.2360 -0.4922  0.7099
18221SOL     OW56103   4.051   1.263   0.602 -0.2181 -0.0103 -0.2070
18221SOL    HW156104   4.044   1.339   0.660  0.0816 -0.9536  1.1034
18221SOL    HW256105   4.139   1.229   0.618  0.2156  0.2211 -1.9013
18222SOL     OW56106   4.485   6.853  10.621  0.6604  0.4052  1.0998
18222SOL    HW156107   4.406   6.846  10.569  0.7306  0.2533  1.0148
18222SOL    HW256108   4.460   6.821  10.708  1.0526 -1.2175  0.6426
18223SOL     OW56109   2.442   0.512  12.340  0.0510  0.1886 -0.0133
18223SOL    HW156110   2.444   0.443  12.406 -1.9470 -0.2403 -0.3440
18223SOL    HW256111   2.484   0.474  12.263  1.5407  0.3712  0.6694
18224SOL     OW56112   5.453   7.127   5.035  0.0595 -0.4099  0.5148
18224SOL    HW156113   5.433   7.104   5.126 -0.8678  0.9361  0.6791
18224SOL    HW256114   5.517   7.198   5.042  0.9352 -1.1481  0.0804
18225SOL     OW56115   7.473   5.202   8.865  0.1932  0.1400  0.1390
18225SOL    HW156116   7.514   5.169   8.944 -2.2601  0.6440  1.7326
18225SOL    HW256117   7.463   5.125   8.809 -1.8744 -1.1996  2.1594
18226SOL     OW56118   7.262   4.012   2.916 -0.0021 -0.3071 -0.2013
18226SOL    HW156119   7.314   4.092   2.904 -1.2094  0.4387 -0.6310
18226SOL    HW256120   7.175   4.035   2.883 -0.2127 -2.0036 -0.9287
18227SOL     OW56121   7.384   7.801   4.166  0.0933 -0.6149  0.7458
18227SOL    HW156122   7.408   7.879   4.216 -0.9892  0.1290  0.1512
18227SOL    HW256123   7.409   7.728   4.222  0.4666  0.1671  1.6299
18228SOL     OW56124   0.032   3.488   2.806  0.1069 -0.1807 -0.4217
18228SOL    HW156125   0.126   3.503   2.806  0.2281 -0.8914 -1.0961
18228SOL    HW256126   0.016   3.432   2.731 -0.8998  0.1696 -0.4907
18229SOL     OW56127   6.311   0.877   3.242  0.0404 -0.4008 -0.2503
18229SOL    HW156128   6.326   0.956   3.293 -0.7111 -0.6729  0.4181
18229SOL    HW256129   6.360   0.890   3.161 -0.8308  1.1815 -0.5639
18230SOL     OW56130   0.867   3.263   4.043 -0.4349 -0.3450  0.1541
18230SOL    HW156131   0.801   3.218   3.990 -0.7612  0.1868  0.1054
18230SOL    HW256132   0.887   3.342   3.995  0.0922 -0.4021  0.2754
18231SOL     OW56133   0.255   4.878   1.723 -0.1157 -0.2290 -0.0166
18231SOL    HW156134   0.267   4.808   1.659  0.0157 -1.2165  1.0527
18231SOL    HW256135   0.342   4.891   1.761 -0.4985 -0.8051  1.0989
18232SOL     OW56136   2.394   3.147   2.362 -0.3315  0.4062 -0.3607
18232SOL    HW156137   2.432   3.136   2.450 -0.5701 -0.8767 -0.3953
18232SOL    HW256138   2.379   3.057   2.332 -1.1406  0.8580 -1.3322
18233SOL     OW56139   0.486   2.642   1.750  0.4710  0.0548  0.3300
18233SOL    HW156140   0.561   2.698   1.768 -0.3952  1.1884  0.4676
18233SOL    HW256141   0.515   2.554   1.775  1.1529  0.7417  2.0593
18234SOL     OW56142   7.304   0.335   6.672  0.1039 -0.8605  0.3563
18234SOL    HW156143   7.352   0.362   6.594  1.0247 -1.3289  0.7417
18234SOL    HW256144   7.345   0.384   6.743 -1.1642  0.0593  0.4723
18235SOL     OW56145   1.652   4.215   5.256  0.1720 -0.4659 -0.1779
18235SOL    HW156146   1.561   4.228   5.227 -0.4845 -0.8305  1.6159
18235SOL    HW256147   1.704   4.258   5.188 -1.2647 -1.1370 -1.7985
18236SOL     OW56148   3.165   3.935   9.468  0.1735  0.5430 -0.0457
18236SOL    HW156149   3.206   4.004   9.417  1.0487  0.0992  0.0496
18236SOL    HW256150   3.209   3.854   9.442 -0.9637 -0.0258 -0.2985
18237SOL     OW56151   1.985   0.820  11.646  0.0068  0.2252 -0.1842
18237SOL    HW156152   2.052   0.861  11.701 -1.2582 -1.0771  2.5244
18237SOL    HW256153   1.902   0.839  11.690 -0.9104 -2.4705 -0.5226
18238SOL     OW56154   1.403   3.197  10.409  0.1562 -0.0399 -0.1536
18238SOL    HW156155   1.391   3.102  10.415  0.6399 -0.1324 -0.5228
18238SOL    HW256156   1.493   3.211  10.440  0.2982  0.2271 -0.6786
18239SOL     OW56157   0.111   7.717   2.915 -0.3975 -0.9337 -0.0665
18239SOL    HW156158   0.102   7.788   2.852  0.4032 -1.9479 -1.3654
18239SOL    HW256159   0.038   7.658   2.897 -0.9139 -0.5818  0.8334
18240SOL     OW56160   0.326   4.484   8.047 -0.3581  0.1868  0.0628
18240SOL    HW156161   0.402   4.437   8.015 -0.3439 -0.7769  1.4209
18240SOL    HW256162   0.354   4.523   8.130 -0.4086  2.5324 -0.9561
18241SOL     OW56163   4.810   2.287   3.962 -0.0780 -0.0169  0.5808
18241SOL    HW156164   4.773   2.364   3.919 -3.0744 -1.6510 -0.0249
18241SOL    HW256165   4.769   2.213   3.918  0.0013 -1.8837  3.4248
18242SOL     OW56166   3.675   4.586  10.261 -0.2655 -0.5858 -0.8207
18242SOL    HW156167   3.665   4.677  10.235 -1.1664 -0.9041 -1.6060
18242SOL    HW256168   3.587   4.550  10.261 -0.3111 -0.7854  2.1436
18243SOL     OW56169   0.581   7.933  11.473 -0.1716  0.3416 -0.1463
18243SOL    HW156170   0.505   7.954  11.418 -1.0589  2.5659  1.7505
18243SOL    HW256171   0.546   7.874  11.540 -0.2649  1.3684  0.7310
18244SOL     OW56172   2.881   6.020   1.874  0.2760 -0.4386  0.2294
18244SOL    HW156173   2.903   5.928   1.864 -0.5577 -0.6002 -0.2172
18244SOL    HW256174   2.845   6.046   1.789 -1.0924 -0.1713  0.8643
18245SOL     OW56175   7.137   6.746   7.190  0.0188 -0.4335 -0.8365
18245SOL    HW156176   7.079   6.679   7.153  0.5839 -1.4195  0.0137
18245SOL    HW256177   7.209   6.697   7.229 -0.0970  0.6070  0.7615
18246SOL     OW56178   4.172   4.186  11.104  0.0892  0.1823  0.5748
18246SOL    HW156179   4.233   4.237  11.158  2.1187 -0.7236 -0.7571
18246SOL    HW256180   4.118   4.251  11.059  2.0831  1.1850 -0.4705
18247SOL     OW56181   4.075   7.663   9.996  0.2645 -0.0513  0.0471
18247SOL    HW156182   4.052   7.755   9.981  0.7681 -0.1286 -1.4161
18247SOL    HW256183   4.168   7.665  10.016  0.5000 -0.3021 -0.9551
18248SOL     OW56184   7.878   3.112   8.094 -0.5390  0.3785 -0.1508
18248SOL    HW156185   7.847   3.034   8.139  1.3440  0.1246  0.8265
18248SOL    HW256186   7.838   3.108   8.007 -2.6537 -0.1848  0.7812
18249SOL     OW56187   7.884   1.534   2.848  0.3128  0.3759 -0.2541
18249SOL    HW156188   7.834   1.615   2.838  0.6818  0.6265 -0.1104
18249SOL    HW256189   7.825   1.465   2.818 -0.3016  0.6125  0.3711
18250SOL     OW56190   3.214   5.592  10.446  0.0006 -0.0327  1.1281
18250SOL    HW156191   3.245   5.674  10.409 -3.2753  0.8854  0.0621
18250SOL    HW256192   3.160   5.617  10.520 -1.3425 -1.1540  0.5779
18251SOL     OW56193   4.251   0.923   7.308  0.4082  0.0175  0.1348
18251SOL    HW156194   4.237   0.960   7.396  0.1233 -1.6842  0.8414
18251SOL    HW256195   4.269   0.831   7.324  0.3563 -0.3162 -1.6156
18252SOL     OW56196   5.656   3.685  10.236 -0.3342 -0.1444 -0.2684
18252SOL    HW156197   5.729   3.715  10.182  0.3120  0.4174  0.8883
18252SOL    HW256198   5.665   3.589  10.238  0.8746 -0.0327  0.5274
18253SOL     OW56199   4.173   5.328   6.543  0.2964 -0.1748  0.2787
18253SOL    HW156200   4.096   5.272   6.557 -0.1493  0.2563 -0.3927
18253SOL    HW256201   4.232   5.305   6.614 -0.6936 -0.1135  1.1526
18254SOL     OW56202   4.259   7.616   6.985 -0.0167 -0.4334 -0.1496
18254SOL    HW156203   4.252   7.708   7.010 -2.7718 -0.5917 -0.0393
18254SOL    HW256204   4.284   7.619   6.892  0.1183  0.4057 -0.0952
18255SOL     OW56205   5.293   5.936   3.333  0.8052 -0.3890  0.4653
18255SOL    HW156206   5.370   5.880   3.339  1.2935  0.1268 -0.5788
18255SOL    HW256207   5.228   5.895   3.390  2.1303 -0.3420  2.0779
18256SOL     OW56208   0.572   3.495  11.203  0.4485 -0.4051 -0.4325
18256SOL    HW156209   0.564   3.480  11.109  1.7201  1.7875 -0.9627
18256SOL    HW256210   0.663   3.471  11.223  0.0915 -1.1785  0.3285
18257SOL     OW56211   0.593   4.197   5.346 -0.4074  0.6443 -0.0679
18257SOL    HW156212   0.526   4.256   5.311  0.4858  1.2853 -0.7766
18257SOL    HW256213   0.552   4.155   5.422 -2.2744 -0.4838 -1.6228
18258SOL     OW56214   3.587   0.739   9.989 -0.3784  0.3439 -0.1420
18258SOL    HW156215   3.502   0.724  10.030 -0.2983 -1.5211 -0.5772
18258SOL    HW256216   3.641   0.776  10.058 -0.9770 -0.3519  0.7150
18259SOL     OW56217   7.831   4.108   2.121 -0.0567 -0.2408 -0.0554
18259SOL    HW156218   7.822   4.101   2.026 -3.7185 -0.3817  0.1656
18259SOL    HW256219   7.924   4.124   2.135  0.8648 -1.5725 -3.5574
18260SOL     OW56220   0.643   6.253   6.943  0.2312  0.4818  0.2703
18260SOL    HW156221   0.593   6.174   6.920  0.6760  0.3993 -0.4486
18260SOL    HW256222   0.719   6.220   6.992  1.6956  0.1802 -2.0409
18261SOL     OW56223   3.907   4.290   2.408  0.3355  0.2833  0.6003
18261SOL    HW156224   3.975   4.292   2.341  0.0368 -0.8599  0.2230
18261SOL    HW256225   3.833   4.337   2.370  1.1839  2.3718  1.3841
18262SOL     OW56226   6.964   4.191   7.608  0.1526  0.1991  0.1234
18262SOL    HW156227   6.937   4.247   7.535  1.7835  0.4056 -0.3547
18262SOL    HW256228   7.018   4.124   7.567  0.3386 -0.2113  1.0369
18263SOL     OW56229   4.750   1.474   6.362  0.0613  0.0742 -0.3050
18263SOL    HW156230   4.802   1.394   6.362  0.0262  0.0135  1.6680
18263SOL    HW256231   4.807   1.540   6.402 -0.1454  0.9058 -1.3224
18264SOL     OW56232   0.199   3.660  11.975  0.1837 -0.4649  0.6730
18264SOL    HW156233   0.188   3.587  11.914 -0.1431  0.5271 -0.4928
18264SOL    HW256234   0.126   3.719  11.955  1.7032  1.2822 -0.0278
18265SOL     OW56235   3.388   0.757   4.497 -0.3287  0.0318 -0.0144
18265SOL    HW156236   3.365   0.702   4.572  0.4425 -0.9814 -0.4833
18265SOL    HW256237   3.328   0.831   4.502 -0.3924 -0.0871  1.5073
18266SOL     OW56238   0.643   1.830  11.049  0.3706 -0.2096 -0.2618
18266SOL    HW156239   0.583   1.788  10.988  1.0782  1.0192 -1.8862
18266SOL    HW256240   0.621   1.794  11.135 -0.9075 -1.7132 -1.1920
18267SOL     OW56241   5.347   7.420  12.036 -0.0494  0.4588 -0.0500
18267SOL    HW156242   5.283   7.466  11.982  1.7615  2.3759 -0.6991
18267SOL    HW256243   5.429   7.427  11.987  1.1919  0.2929  1.9120
18268SOL     OW56244   3.540   7.293   6.610  0.4930  0.5943 -0.4038
18268SOL    HW156245   3.500   7.331   6.688  3.7978  3.6875  0.0386
18268SOL    HW256246   3.601   7.228   6.644 -0.1728 -0.1926 -0.6797
18269SOL     OW56247   7.422   2.993  10.173 -0.1042 -0.4648  0.0915
18269SOL    HW156248   7.391   3.055  10.239 -0.4561 -0.5601  0.0206
18269SOL    HW256249   7.385   3.025  10.090 -1.8769 -1.7778  0.2987
18270SOL     OW56250   3.879   5.574   9.700  0.3492  0.6145 -0.3938
18270SOL    HW156251   3.885   5.479   9.711  1.8828  0.7937  0.5964
18270SOL    HW256252   3.818   5.586   9.627 -1.9406 -1.0324  1.1356
18271SOL     OW56253   7.745   5.596  12.015 -0.2325 -0.0210 -0.0831
18271SOL    HW156254   7.686   5.549  12.075  2.9087 -0.5661  2.9347
18271SOL    HW256255   7.713   5.686  12.015 -2.5140 -0.7605 -0.6954
18272SOL     OW56256   5.584   6.203   9.966 -0.0920  0.4181 -0.6729
18272SOL    HW156257   5.593   6.153  10.047 -0.2080  0.2903 -0.7399
18272SOL    HW256258   5.490   6.211   9.953 -0.0739  0.3121 -0.8740
18273SOL     OW56259   3.577   4.955   7.542  0.0296  0.0102  0.3343
18273SOL    HW156260   3.580   5.051   7.540  2.3324  0.0005  0.2165
18273SOL    HW256261   3.485   4.934   7.531 -0.5257  2.2076  0.2078
18274SOL     OW56262   3.867   7.605   2.532  0.2408 -0.3688 -0.1508
18274SOL    HW156263   3.881   7.653   2.613 -0.4916  0.6723 -0.6164
18274SOL    HW256264   3.953   7.599   2.492  0.4649 -0.1506  0.2969
18275SOL     OW56265   6.265   0.430   3.032 -0.3337  0.9206  0.0405
18275SOL    HW156266   6.217   0.513   3.023 -0.1337  0.8810 -2.0262
18275SOL    HW256267   6.337   0.450   3.091 -0.0235  2.3882 -0.7751
18276SOL     OW56268   3.813   0.097   7.026 -0.2757 -0.8070  0.2726
18276SOL    HW156269   3.766   0.159   7.082  0.0990  0.6877 -0.9874
18276SOL    HW256270   3.830   0.022   7.082  0.3890  0.7421  2.2640
18277SOL     OW56271   0.886   6.721   3.866  0.2140 -0.3366  0.3083
18277SOL    HW156272   0.825   6.680   3.926  0.7846  0.2989  1.3466
18277SOL    HW256273   0.936   6.783   3.920  2.5167 -1.5958 -0.2593
18278SOL     OW56274   7.239   3.420   1.907  0.0931  0.7815 -0.6700
18278SOL    HW156275   7.262   3.447   1.818 -0.1053  1.9561 -0.3806
18278SOL    HW256276   7.314   3.447   1.960 -0.6863  2.0320 -0.1614
18279SOL     OW56277   2.105   2.680   6.390 -0.0666  0.2049  0.3451
18279SOL    HW156278   2.160   2.612   6.351 -2.3669 -1.0178 -0.9541
18279SOL    HW256279   2.068   2.726   6.315 -1.0703  0.7818  1.1786
18280SOL     OW56280   5.213   1.873   7.294  0.1673 -0.7072 -0.4899
18280SOL    HW156281   5.192   1.965   7.280  0.0522 -0.5893  0.3732
18280SOL    HW256282   5.306   1.866   7.273 -0.2672 -0.8294 -2.4996
18281SOL     OW56283   5.504   1.678   6.240  0.6841  0.0352  0.0353
18281SOL    HW156284   5.451   1.619   6.187 -0.1015  1.4334 -0.7784
18281SOL    HW256285   5.481   1.655   6.331 -1.4728  0.7033 -0.2869
18282SOL     OW56286   3.375   5.749   8.790  0.4328 -0.1271 -0.2564
18282SOL    HW156287   3.428   5.693   8.847  0.7416 -0.2058 -0.6202
18282SOL    HW256288   3.288   5.748   8.831  0.4361 -0.8642 -0.2446
18283SOL     OW56289   3.282   5.636   7.623  0.0289 -0.1948  0.2569
18283SOL    HW156290   3.316   5.587   7.698  2.9303 -0.8225 -1.2814
18283SOL    HW256291   3.234   5.570   7.572  2.1873 -1.1186 -0.7641
18284SOL     OW56292   4.067   4.697   7.139  0.4515  0.5026 -0.1020
18284SOL    HW156293   4.019   4.778   7.120  1.5250  1.2774  0.3635
18284SOL    HW256294   4.155   4.713   7.104  0.3501 -0.9367 -1.0715
18285SOL     OW56295   2.143   6.982   4.544  0.4956 -0.2808 -0.1935
18285SOL    HW156296   2.052   6.975   4.571  0.5069 -1.0623 -0.3568
18285SOL    HW256297   2.166   7.074   4.562 -0.7159  0.2931 -1.3954
18286SOL     OW56298   2.943   5.775  12.178  0.1024  0.2609 -0.2825
18286SOL    HW156299   2.948   5.843  12.246  2.4642  0.9841 -1.1002
18286SOL    HW256300   3.020   5.790  12.123  0.1629 -2.4939 -1.0772
18287SOL     OW56301   7.367   0.051   1.188 -0.1371  0.3050  0.3937
18287SOL    HW156302   7.354   0.146   1.184  0.2354  0.3340 -0.6978
18287SOL    HW256303   7.460   0.041   1.209  0.2575  0.2308 -1.2133
18288SOL     OW56304   1.912   0.522   6.665  0.1996 -0.5269 -0.4944
18288SOL    HW156305   1.902   0.557   6.577 -1.4219 -0.5547 -0.3486
18288SOL    HW256306   1.917   0.599   6.721 -1.3621 -0.4689 -0.3796
18289SOL     OW56307   2.580   6.674   2.767  0.1471  0.4389  0.0778
18289SOL    HW156308   2.500   6.631   2.796 -0.7133  0.4012 -2.1574
18289SOL    HW256309   2.552   6.730   2.694  2.1614  0.2891 -0.8900
18290SOL     OW56310   3.056   2.130   3.638  0.0389 -0.3903  0.4251
18290SOL    HW156311   3.094   2.187   3.705 -3.1169  0.3042  1.8094
18290SOL    HW256312   2.985   2.084   3.682 -2.5686  0.4816 -2.4611
18291SOL     OW56313   4.904   2.253   4.334 -0.4781  0.0018 -0.2322
18291SOL    HW156314   4.965   2.276   4.405 -0.5803 -0.7179  0.0936
18291SOL    HW256315   4.817   2.262   4.373 -0.6192  1.4839 -0.8299
18292SOL     OW56316   6.368   3.017   4.298 -0.2953  0.3833 -0.4588
18292SOL    HW156317   6.312   3.094   4.296 -0.0221  0.6466 -3.7963
18292SOL    HW256318   6.457   3.051   4.312 -0.4649  0.3801  0.6800
18293SOL     OW56319   7.712   1.779  10.741 -0.0786 -0.1835 -0.4610
18293SOL    HW156320   7.682   1.705  10.688  1.0592 -0.6125 -0.5382
18293SOL    HW256321   7.741   1.738  10.823 -0.3233  0.2913 -0.1363
18294SOL     OW56322   7.027   1.651  11.768  0.2241  1.0371 -0.7281
18294SOL    HW156323   7.039   1.618  11.857 -2.3667  2.1294  0.1385
18294SOL    HW256324   7.103   1.706  11.751  1.3949 -0.2323  0.2825
18295SOL     OW56325   2.034   7.349  11.397  0.0005 -0.4998 -0.0880
18295SOL    HW156326   1.945   7.355  11.361 -0.1247  0.7614  0.3826
18295SOL    HW256327   2.071   7.272  11.355 -0.2753  0.6600 -2.6679
18296SOL     OW56328   6.986   7.696  11.120  0.0427 -0.6889  0.0119
18296SOL    HW156329   6.924   7.695  11.193 -2.1740  1.0667 -1.6808
18296SOL    HW256330   6.991   7.605  11.091 -1.6456 -0.9039  0.3166
18297SOL     OW56331   2.524   0.413   0.876  0.2925 -0.5423 -1.1690
18297SOL    HW156332   2.538   0.350   0.805  1.4605  0.2488 -1.6834
18297SOL    HW256333   2.513   0.497   0.831 -2.1806 -0.4579 -0.5517
18298SOL     OW56334   7.529   4.156   0.144  0.3918 -0.0357 -0.4245
18298SOL    HW156335   7.468   4.112   0.084  0.1211 -0.8390  0.4216
18298SOL    HW256336   7.512   4.116   0.229  0.6825  1.1809  0.2244
18299SOL     OW56337   4.798   6.961   1.818 -0.1928 -0.5131 -0.1604
18299SOL    HW156338   4.761   7.009   1.892  0.2810  0.4787 -0.5471
18299SOL    HW256339   4.871   6.912   1.855 -0.8053 -1.1146  0.2794
18300SOL     OW56340   4.188   5.118   8.446 -0.0769 -0.1198 -0.1858
18300SOL    HW156341   4.130   5.055   8.403  0.0124 -2.6082  2.8803
18300SOL    HW256342   4.129   5.179   8.490 -0.4695 -1.5440  1.4048
18301SOL     OW56343   7.719   0.768   2.007  0.4160 -0.3867 -0.3280
18301SOL    HW156344   7.795   0.826   2.005 -0.7369  1.1642 -1.3657
18301SOL    HW256345   7.682   0.780   2.095 -0.2233  1.0498 -0.7690
18302SOL     OW56346   7.392   4.130   3.632  0.0542 -0.3257 -0.7124
18302SOL    HW156347   7.437   4.047   3.616  0.2741  0.0150 -1.9587
18302SOL    HW256348   7.343   4.147   3.552  0.9905  1.3411 -0.9871
18303SOL     OW56349   1.841   2.117  10.532 -0.0539 -0.4659 -0.1709
18303SOL    HW156350   1.800   2.175  10.596 -1.0666 -0.1869 -1.0437
18303SOL    HW256351   1.791   2.036  10.536 -0.6475 -0.1580 -1.1793
18304SOL     OW56352   1.706   2.215   7.856  0.2125  0.9084 -1.0479
18304SOL    HW156353   1.736   2.134   7.898 -2.7438  0.8208  1.1660
18304SOL    HW256354   1.771   2.281   7.882  1.0101 -0.1281 -0.3091
18305SOL     OW56355   5.325   3.809   0.089 -0.0976 -0.0451  0.2497
18305SOL    HW156356   5.256   3.864   0.051  0.4741  0.9836  0.6510
18305SOL    HW256357   5.296   3.791   0.178  0.8407  1.7409  0.9787
18306SOL     OW56358   4.146   7.333   6.156 -0.7163 -0.2387 -0.2939
18306SOL    HW156359   4.094   7.260   6.190 -1.4061 -0.0369 -0.8804
18306SOL    HW256360   4.086   7.380   6.098 -0.0577  0.3656 -0.5029
18307SOL     OW56361   2.459   5.543  11.253  0.5281 -0.1963  0.8457
18307SOL    HW156362   2.548   5.558  11.220  0.6656 -0.5105  1.0636
18307SOL    HW256363   2.411   5.622  11.230  0.2658 -0.9347 -1.3011
18308SOL     OW56364   7.889   4.416   1.138 -0.1565 -0.3270  0.3467
18308SOL    HW156365   7.832   4.445   1.067  0.1632  1.1237  0.6615
18308SOL    HW256366   7.858   4.328   1.159 -2.0575  0.2961  0.2962
18309SOL     OW56367   4.240   7.441   7.870  0.1147  0.2749 -0.1159
18309SOL    HW156368   4.223   7.498   7.945  0.0753 -1.4371  1.2262
18309SOL    HW256369   4.280   7.499   7.805  0.6306  1.7153  1.4124
18310SOL     OW56370   4.993   3.754   0.065 -0.1388 -0.0188  1.1481
18310SOL    HW156371   4.929   3.734   0.134 -0.6690 -1.0590  0.3721
18310SOL    HW256372   5.015   3.669   0.027 -0.2382  0.5676 -0.2963
18311SOL     OW56373   2.503   7.098   9.089 -0.3523  0.0120  0.1271
18311SOL    HW156374   2.417   7.098   9.129 -0.0918 -0.3299  0.7027
18311SOL    HW256375   2.498   7.032   9.021 -0.4221 -0.3121  0.4419
18312SOL     OW56376   6.529   2.644   5.298 -0.5145  0.0419 -0.3637
18312SOL    HW156377   6.537   2.727   5.344 -1.6084  0.9375 -1.6981
18312SOL    HW256378   6.511   2.580   5.367  0.8249  0.8019  0.7342
18313SOL     OW56379   2.358   1.959  10.670  0.1588  0.8276 -0.1996
18313SOL    HW156380   2.349   1.933  10.762  0.0307  0.8465 -0.2058
18313SOL    HW256381   2.423   2.028  10.671  0.5846  0.4324 -0.1978
18314SOL     OW56382   0.228   3.740   3.472  0.1597  0.5475 -0.2141
18314SOL    HW156383   0.265   3.719   3.387 -0.7401  0.1713 -0.5297
18314SOL    HW256384   0.135   3.756   3.454  0.3711  2.6610  0.3565
18315SOL     OW56385   7.259   7.545  11.708  0.0443 -0.3132 -0.0298
18315SOL    HW156386   7.256   7.625  11.761 -1.1633 -0.9183  0.8745
18315SOL    HW256387   7.185   7.493  11.739  0.6740 -1.6989 -0.7508
18316SOL     OW56388   0.752   6.024   8.366  0.2401 -0.0215 -0.0491
18316SOL    HW156389   0.718   5.949   8.317 -0.4810  0.8893 -0.9738
18316SOL    HW256390   0.689   6.036   8.438 -0.0871  0.1857 -0.3673
18317SOL     OW56391   3.071   1.305   6.266 -0.2415 -0.1101  0.1671
18317SOL    HW156392   3.001   1.356   6.306 -0.3006 -1.3924  1.8218
18317SOL    HW256393   3.134   1.292   6.337  0.9655 -0.2303 -0.8959
18318SOL     OW56394   6.856   2.551   4.863  0.2903 -0.7261 -0.0377
18318SOL    HW156395   6.865   2.617   4.795  1.3419 -0.6420  0.1730
18318SOL    HW256396   6.828   2.599   4.941  0.8059 -0.5600  0.0481
18319SOL     OW56397   4.911   6.549   3.880 -0.1785  0.4208 -0.2377
18319SOL    HW156398   4.850   6.479   3.856 -0.8618  0.9664 -0.1230
18319SOL    HW256399   4.891   6.620   3.819 -1.9233  1.8218  1.8051
18320SOL     OW56400   0.510   4.843   9.353 -0.4963 -0.6281  0.2288
18320SOL    HW156401   0.506   4.788   9.275  1.3223  0.3350 -0.6122
18320SOL    HW256402   0.533   4.783   9.423 -1.2599 -1.3620 -0.1342
18321SOL     OW56403   7.525   3.051  11.786  0.2001  0.4780  0.4321
18321SOL    HW156404   7.476   3.055  11.704 -1.3638  0.0756  1.3133
18321SOL    HW256405   7.524   2.958  11.810  1.1708  0.5039  0.6237
18322SOL     OW56406   6.561   4.331   2.795  0.3664  0.2117  0.2567
18322SOL    HW156407   6.629   4.294   2.738 -0.9881  0.4382 -1.5879
18322SOL    HW256408   6.543   4.261   2.858  1.0825 -0.5243 -0.3273
18323SOL     OW56409   1.840   3.645   5.686 -0.4704 -0.5041  0.3574
18323SOL    HW156410   1.900   3.600   5.746 -1.3161 -0.9295  0.9096
18323SOL    HW256411   1.878   3.632   5.599  2.6430  2.9648  0.9710
18324SOL     OW56412   3.735   7.023   9.509 -0.4335 -0.2318  0.5815
18324SOL    HW156413   3.766   6.970   9.582  1.2489  0.1053  0.1716
18324SOL    HW256414   3.683   7.092   9.550 -2.8418 -2.2338  1.1013
18325SOL     OW56415   3.786   1.430  11.745 -0.1882 -0.1009 -0.6968
18325SOL    HW156416   3.879   1.439  11.766 -0.1950 -0.7574 -0.3659
18325SOL    HW256417   3.740   1.457  11.825 -0.2639 -0.2764 -0.6787
18326SOL     OW56418   0.988   5.405   2.680  0.0927 -0.1777  0.2930
18326SOL    HW156419   0.991   5.423   2.774  0.1044 -1.4202  0.5435
18326SOL    HW256420   0.969   5.311   2.674 -0.2032 -0.0544 -0.9467
18327SOL     OW56421   4.286   7.273   5.765 -0.0736 -0.1396  0.0559
18327SOL    HW156422   4.267   7.206   5.698 -1.0209 -0.3389  0.4979
18327SOL    HW256423   4.282   7.225   5.848  0.9718  0.1305  0.2734
18328SOL     OW56424   2.116   5.091   9.066 -0.0790 -0.7851 -0.4605
18328SOL    HW156425   2.129   5.138   9.149  0.0509 -2.0155  0.2422
18328SOL    HW256426   2.203   5.089   9.026 -0.3462  0.7648 -1.1789
18329SOL     OW56427   5.583   5.323   0.458 -0.1417  0.0256  0.5358
18329SOL    HW156428   5.588   5.234   0.423 -0.6418 -0.3564  1.3917
18329SOL    HW256429   5.533   5.372   0.393  0.9710 -0.0680 -0.4111
18330SOL     OW56430   4.649   2.270   4.439  0.1089  0.4993 -0.0375
18330SOL    HW156431   4.644   2.356   4.482 -1.3889  0.2734  0.3019
18330SOL    HW256432   4.560   2.253   4.408  0.4440 -0.8057 -0.3561
18331SOL     OW56433   0.347   1.249   2.290  0.5057 -0.8730 -0.2402
18331SOL    HW156434   0.411   1.252   2.219  0.0751 -2.0811 -0.7130
18331SOL    HW256435   0.319   1.157   2.293  0.7443 -0.9241  1.7156
18332SOL     OW56436   4.538   5.273   0.964  0.5503  0.4514  0.3727
18332SOL    HW156437   4.555   5.181   0.946 -0.3348  0.6841 -2.0133
18332SOL    HW256438   4.452   5.274   1.007 -1.0470  0.2602 -2.5478
18333SOL     OW56439   6.755   0.960   6.245 -0.7513  0.7181  0.5715
18333SOL    HW156440   6.705   0.885   6.278 -1.3763  0.6306 -0.5242
18333SOL    HW256441   6.688   1.021   6.215 -0.2271  0.5444 -1.0416
18334SOL     OW56442   3.175   7.316   8.497  0.0373  0.3958 -0.0367
18334SOL    HW156443   3.224   7.391   8.531 -0.4698  0.5275  0.4042
18334SOL    HW256444   3.108   7.354   8.441 -1.6138  0.4471  1.8611
18335SOL     OW56445   0.840   7.488   6.502 -0.0581 -0.2898  0.4435
18335SOL    HW156446   0.808   7.502   6.591  0.3753 -1.4334  0.7955
18335SOL    HW256447   0.908   7.555   6.491  1.0738 -1.1796  1.6168
18336SOL     OW56448   2.946   5.288   5.912 -0.4507 -0.0293 -0.4740
18336SOL    HW156449   2.889   5.212   5.923 -0.0736 -0.5729 -1.9589
18336SOL    HW256450   2.888   5.357   5.880 -0.2383 -0.7768 -2.6505
18337SOL     OW56451   6.185   7.361  11.194  0.0705  0.3874 -0.1320
18337SOL    HW156452   6.115   7.299  11.174 -0.0532  0.6259 -0.4293
18337SOL    HW256453   6.151   7.412  11.267  0.2418 -0.0073  0.2315
18338SOL     OW56454   0.396   5.938   0.256 -0.3108 -0.5652  0.1590
18338SOL    HW156455   0.391   5.967   0.165  1.7352 -0.2449  0.1217
18338SOL    HW256456   0.453   5.861   0.254  2.5568  1.3468  1.5185
18339SOL     OW56457   5.204   2.350   3.816 -0.2345  0.1943 -0.5187
18339SOL    HW156458   5.258   2.366   3.738 -0.2635  0.0585 -0.5674
18339SOL    HW256459   5.230   2.418   3.878 -0.2044  0.2984 -0.6441
18340SOL     OW56460   5.301   2.691   2.802 -0.4668 -0.4509  0.0763
18340SOL    HW156461   5.273   2.610   2.759 -1.1699 -0.3528  0.3486
18340SOL    HW256462   5.304   2.756   2.732 -0.7248 -0.5094  0.0117
18341SOL     OW56463   3.488   1.551   7.883 -0.1358 -0.1136  0.1899
18341SOL    HW156464   3.484   1.466   7.927 -0.6152 -1.8176 -2.9006
18341SOL    HW256465   3.470   1.615   7.953  0.1380 -2.4984  2.6007
18342SOL     OW56466   3.074   2.062   1.599 -0.1794 -0.3740 -0.0741
18342SOL    HW156467   3.118   2.074   1.683 -0.7452 -1.1953  0.3580
18342SOL    HW256468   3.091   1.971   1.575  0.0148 -0.1309 -0.8754
18343SOL     OW56469   5.956   7.559   4.207  0.4753 -0.2796 -0.3969
18343SOL    HW156470   5.959   7.617   4.283 -0.3233 -1.2269  0.3906
18343SOL    HW256471   5.888   7.494   4.229  1.2552 -1.4387 -1.2786
18344SOL     OW56472   7.068   0.803   2.829  1.0205 -0.1846  0.6665
18344SOL    HW156473   7.081   0.716   2.792  1.9346 -0.3279  1.3076
18344SOL    HW256474   7.004   0.789   2.899  2.0306 -0.5566  1.5335
18345SOL     OW56475   5.267   3.509  10.971  0.1242 -0.5339  0.1925
18345SOL    HW156476   5.235   3.476  11.055  1.2588  2.0624  1.7867
18345SOL    HW256477   5.188   3.531  10.922 -0.5892 -0.0089  1.5181
18346SOL     OW56478   1.768   5.744  10.212  0.4456 -0.8647  0.7258
18346SOL    HW156479   1.715   5.681  10.260 -1.2843 -0.4023 -0.4686
18346SOL    HW256480   1.791   5.700  10.131  0.9682 -0.6612  0.7569
18347SOL     OW56481   2.751   0.298   1.020 -0.6116 -0.1767  0.0891
18347SOL    HW156482   2.706   0.273   0.939 -0.7283 -1.5142  0.5422
18347SOL    HW256483   2.820   0.233   1.031 -1.2814 -0.6872  1.6235
18348SOL     OW56484   3.651   6.828  11.730  0.6583  0.0924  0.0684
18348SOL    HW156485   3.717   6.877  11.780  0.7902 -0.0426  0.0270
18348SOL    HW256486   3.573   6.883  11.734  0.2015 -0.6019  1.7295
18349SOL     OW56487   7.649   5.517   9.726  0.1378  0.1728  0.0946
18349SOL    HW156488   7.634   5.445   9.787  0.4691  1.5223  1.8830
18349SOL    HW256489   7.742   5.511   9.703  0.8793  1.5479  2.4291
18350SOL     OW56490   7.676   6.938   7.804  0.2192 -0.5274  0.0773
18350SOL    HW156491   7.694   6.920   7.896 -0.5743  1.0490  0.5782
18350SOL    HW256492   7.761   6.961   7.767  0.3666  0.0039  0.7242
18351SOL     OW56493   4.128   0.746   4.347 -0.4224  0.1202 -0.4483
18351SOL    HW156494   4.038   0.749   4.377  0.3748  1.2092  2.1531
18351SOL    HW256495   4.151   0.653   4.347 -1.3280 -0.1093 -0.4863
18352SOL     OW56496   0.089   6.940   6.694 -0.6460 -0.4180 -0.0605
18352SOL    HW156497   0.097   6.968   6.603  1.7008 -0.7050 -0.0016
18352SOL    HW256498   0.162   6.984   6.739 -1.1356 -1.0910  1.4595
18353SOL     OW56499   6.017   3.537   0.647 -0.1604 -0.4247 -0.3729
18353SOL    HW156500   6.046   3.548   0.738 -1.7948 -0.0980  0.1545
18353SOL    HW256501   5.993   3.626   0.619 -1.3077 -0.7554 -0.5071
18354SOL     OW56502   5.288   6.684   2.282  0.7465 -0.2669  0.0396
18354SOL    HW156503   5.226   6.754   2.262  1.7283  0.3708 -0.9418
18354SOL    HW256504   5.252   6.641   2.359 -1.0149 -0.0778 -0.6430
18355SOL     OW56505   5.998   3.777   1.446  0.9496 -0.1014  0.0620
18355SOL    HW156506   5.993   3.758   1.540 -0.9081  2.9104  0.6993
18355SOL    HW256507   5.938   3.715   1.406 -0.9451  0.7914  1.3668
18356SOL     OW56508   6.913   2.659   3.615 -0.8207  0.3437 -0.6579
18356SOL    HW156509   6.848   2.726   3.592 -1.4531  0.2665  0.8082
18356SOL    HW256510   6.994   2.708   3.629 -1.5900  1.0388  1.7482
18357SOL     OW56511   1.709   7.880  10.087  0.9735 -0.3469 -0.2284
18357SOL    HW156512   1.664   7.916  10.163  0.5247 -0.8090 -0.2668
18357SOL    HW256513   1.689   7.786  10.089  0.4647 -0.2731 -1.2427
18358SOL     OW56514   3.958   7.667   4.488  0.3860 -0.1359  0.1824
18358SOL    HW156515   3.903   7.591   4.510  0.2586 -0.3744 -0.9130
18358SOL    HW256516   3.902   7.723   4.435  0.9037  0.0801 -0.1398
18359SOL     OW56517   4.071   1.139   8.768 -0.1462 -0.7077  0.6872
18359SOL    HW156518   4.027   1.153   8.684  2.0006 -1.5319 -0.6792
18359SOL    HW256519   4.084   1.044   8.772 -0.0085 -0.6508  1.8610
18360SOL     OW56520   2.512   2.413   8.162 -0.3067 -0.1899 -0.2785
18360SOL    HW156521   2.559   2.395   8.244 -2.0057 -3.6644  0.0880
18360SOL    HW256522   2.580   2.407   8.094  1.0223  2.2154  0.7187
18361SOL     OW56523   5.846   4.386   5.096 -0.0561 -0.5878 -0.0072
18361SOL    HW156524   5.843   4.391   5.192  0.4604 -0.4004  0.0071
18361SOL    HW256525   5.860   4.476   5.068  1.6162 -0.8563 -0.1582
18362SOL     OW56526   3.502   2.895   3.634  0.0822  0.4731 -0.1349
18362SOL    HW156527   3.575   2.834   3.619  0.3166  0.7622 -0.1774
18362SOL    HW256528   3.445   2.883   3.559 -0.2083 -0.1665  0.1743
18363SOL     OW56529   6.092   4.589   9.681  0.0613 -0.2565  0.3746
18363SOL    HW156530   6.052   4.622   9.761 -1.2258  0.9399 -0.7191
18363SOL    HW256531   6.149   4.517   9.710 -1.1366 -0.5060  2.2334
18364SOL     OW56532   4.363   7.775   3.761 -0.2910  0.3316  0.3181
18364SOL    HW156533   4.389   7.717   3.833 -0.2796  1.4544  1.2441
18364SOL    HW256534   4.272   7.796   3.779  0.1424  1.8358  0.8843
18365SOL     OW56535   6.990   5.023   8.890  0.4599  0.2583 -0.4271
18365SOL    HW156536   7.044   5.094   8.854 -1.6413  1.7143 -0.8569
18365SOL    HW256537   6.910   5.025   8.839 -1.1233 -0.0709  1.8840
18366SOL     OW56538   3.070   0.005  11.267 -0.1735 -0.0774  0.0009
18366SOL    HW156539   3.037  -0.081  11.292 -1.5704  0.1975 -0.8309
18366SOL    HW256540   3.005   0.067  11.299  0.0952  0.5645 -0.6473
18367SOL     OW56541   3.199   0.712   5.843  0.0484 -0.1838  0.0695
18367SOL    HW156542   3.269   0.761   5.800  0.8015 -1.4104 -0.1534
18367SOL    HW256543   3.223   0.713   5.935  0.0969 -0.2006  0.0573
18368SOL     OW56544   7.867   4.795  11.093 -0.1560 -0.3847  0.4636
18368SOL    HW156545   7.925   4.844  11.035  0.8867 -0.1272  1.6804
18368SOL    HW256546   7.779   4.826  11.070  0.3609  0.9156  0.1564
18369SOL     OW56547   4.735   2.047   2.553  0.3919 -0.2588 -0.2452
18369SOL    HW156548   4.724   2.136   2.520  0.5839  1.0123  2.7576
18369SOL    HW256549   4.784   2.002   2.485  0.3335  1.9498 -1.8559
18370SOL     OW56550   2.447   2.611   7.474  0.2591  0.1825 -0.5935
18370SOL    HW156551   2.469   2.630   7.565  1.4681  1.0028 -1.0373
18370SOL    HW256552   2.409   2.693   7.441  0.5992  0.1553 -1.0574
18371SOL     OW56553   0.277   6.596   3.581  0.3535 -0.0318  0.1553
18371SOL    HW156554   0.278   6.549   3.664 -0.1895  0.7927  0.6382
18371SOL    HW256555   0.279   6.527   3.515  1.5545 -0.6825  0.8378
18372SOL     OW56556   3.157   1.023   4.852 -0.4252  0.2370 -0.1823
18372SOL    HW156557   3.158   0.992   4.943  0.6277  2.0494  0.4865
18372SOL    HW256558   3.105   1.103   4.854  1.1251  1.3078 -0.7725
18373SOL     OW56559   6.981   5.754   2.185  0.2581 -0.2633  0.2325
18373SOL    HW156560   6.974   5.848   2.172 -2.5847 -0.3831  0.2157
18373SOL    HW256561   6.957   5.741   2.277 -1.0307 -1.0539 -0.1880
18374SOL     OW56562   0.639   4.991   6.665 -0.2202 -0.1790  0.2870
18374SOL    HW156563   0.600   4.906   6.646  1.2839 -1.3528  2.0268
18374SOL    HW256564   0.720   4.992   6.614 -0.2274  0.2000  0.2786
18375SOL     OW56565   6.353   3.762   6.686  0.4855  0.1625  0.3436
18375SOL    HW156566   6.343   3.819   6.610  0.3151 -1.1101 -0.6138
18375SOL    HW256567   6.264   3.739   6.711  0.5823 -1.5158 -0.7222
18376SOL     OW56568   2.960   4.992   1.458 -0.4862  0.1843  0.2151
18376SOL    HW156569   3.006   4.943   1.389  0.1531  0.3815  0.4892
18376SOL    HW256570   2.868   4.968   1.448 -0.1350 -1.4224  0.6294
18377SOL     OW56571   0.635   1.697   0.001 -0.2063  0.5466 -0.2991
18377SOL    HW156572   0.694   1.764  -0.033 -0.2552  0.3669 -0.7392
18377SOL    HW256573   0.549   1.739   0.004 -0.1119  0.7189  0.0766
18378SOL     OW56574   2.885   1.379   8.933  0.3675 -0.2336 -0.0370
18378SOL    HW156575   2.974   1.362   8.902  0.0366 -1.9056 -0.1951
18378SOL    HW256576   2.861   1.462   8.892  2.1855  0.7760  0.8111
18379SOL     OW56577   6.341   0.940   2.975 -0.2151 -0.4199 -0.5411
18379SOL    HW156578   6.420   0.907   2.932  0.5871  0.0111  0.5482
18379SOL    HW256579   6.296   0.989   2.907  0.7082 -0.2693 -1.0669
18380SOL     OW56580   4.291   6.442   8.545  0.4859  0.1830  0.1660
18380SOL    HW156581   4.211   6.433   8.597  1.0696  1.1247  1.2811
18380SOL    HW256582   4.360   6.453   8.610  1.3581  0.5539 -0.8059
18381SOL     OW56583   4.240   1.074   5.918 -0.0812  0.2567 -0.1210
18381SOL    HW156584   4.278   1.146   5.870 -1.4666  0.0931 -1.5431
18381SOL    HW256585   4.238   1.103   6.009  3.2459  0.2929  0.0479
18382SOL     OW56586   1.789   0.793   3.704 -0.2873  0.3249  0.0946
18382SOL    HW156587   1.870   0.834   3.733  0.7721 -1.2580 -0.4338
18382SOL    HW256588   1.782   0.713   3.757 -0.2694 -0.7056 -1.3806
18383SOL     OW56589   2.504   5.155   3.304  0.1067  0.2703 -0.2968
18383SOL    HW156590   2.543   5.192   3.224 -0.3805  1.0197 -0.2074
18383SOL    HW256591   2.537   5.211   3.375  0.9475 -0.7109  0.1020
18384SOL     OW56592   3.154   5.082   2.931 -0.0553  0.1008 -0.1394
18384SOL    HW156593   3.214   5.007   2.928  2.2209  1.4511  4.1153
18384SOL    HW256594   3.067   5.042   2.937  0.8482 -2.0905 -0.5961
18385SOL     OW56595   6.512   7.932   2.382 -0.0560  0.3795  0.9858
18385SOL    HW156596   6.531   7.989   2.307 -0.7326 -0.1054  0.4323
18385SOL    HW256597   6.581   7.952   2.445  1.7884 -0.6856 -0.5864
18386SOL     OW56598   1.607   2.065   6.791 -0.2296 -0.5410  0.1112
18386SOL    HW156599   1.668   2.095   6.858 -0.5742  0.6779 -0.1064
18386SOL    HW256600   1.650   2.084   6.708 -0.6942 -0.1084 -0.0376
18387SOL     OW56601   0.594   4.123   6.468  0.0972  0.5166 -0.2462
18387SOL    HW156602   0.528   4.153   6.406 -0.3370 -1.2710 -0.7319
18387SOL    HW256603   0.570   4.164   6.551  0.0246  2.0620 -0.9998
18388SOL     OW56604   5.193   7.303   9.946 -0.3602 -0.1064 -0.0683
18388SOL    HW156605   5.146   7.234   9.899 -1.7737 -0.0897  1.2699
18388SOL    HW256606   5.141   7.320  10.024  0.2843  2.0336 -0.0196
18389SOL     OW56607   0.322   7.429  12.047  0.0543 -0.2771  0.4277
18389SOL    HW156608   0.379   7.445  12.122  0.8357 -0.2166 -0.1693
18389SOL    HW256609   0.290   7.339  12.061 -0.4592  0.0149  1.2411
18390SOL     OW56610   5.080   6.959   0.611  0.0440 -0.2291 -0.2132
18390SOL    HW156611   5.012   6.891   0.619 -0.8410  0.2182 -2.9399
18390SOL    HW256612   5.110   6.973   0.701 -2.4091 -1.5444  0.9207
18391SOL     OW56613   6.849   1.348   4.515 -0.0228  0.0451 -0.5879
18391SOL    HW156614   6.917   1.371   4.452  0.4439 -0.3002 -0.2110
18391SOL    HW256615   6.800   1.430   4.527  0.8633  0.5252 -0.1970
18392SOL     OW56616   0.338   5.985   8.557 -0.0667  0.9193 -0.1538
18392SOL    HW156617   0.382   5.922   8.615  0.4267 -0.4765 -1.9305
18392SOL    HW256618   0.308   6.054   8.615  1.2500  0.0866  1.6298
18393SOL     OW56619   4.183   1.870  11.299  0.2338  0.4451 -0.1988
18393SOL    HW156620   4.200   1.892  11.391  1.1546 -0.1494 -0.2085
18393SOL    HW256621   4.169   1.954  11.256 -0.3617  0.7214  0.5174
18394SOL     OW56622   1.004   7.149  10.905  0.1085  0.0754 -0.2497
18394SOL    HW156623   0.977   7.173  10.816  0.9533  0.6518 -0.3613
18394SOL    HW256624   1.097   7.129  10.898  0.1183 -0.1619  0.4513
18395SOL     OW56625   5.608   4.948   9.299  0.4619 -0.3466 -0.1798
18395SOL    HW156626   5.667   4.990   9.361 -0.0769 -1.2177  0.9539
18395SOL    HW256627   5.549   4.896   9.353 -0.9599  0.0132 -1.3283
18396SOL     OW56628   3.900   3.899   7.743 -0.5386 -0.3868  0.4550
18396SOL    HW156629   3.855   3.940   7.669  0.8417  0.7712  0.2124
18396SOL    HW256630   3.853   3.929   7.820 -2.0601 -1.6882  0.0811
18397SOL     OW56631   5.867   2.059   6.898  0.0008  0.1040  0.0283
18397SOL    HW156632   5.874   2.154   6.912  0.4237 -0.1773  1.9573
18397SOL    HW256633   5.860   2.050   6.803 -0.8118  2.1077 -0.1574
18398SOL     OW56634   0.343   1.714   8.725 -0.7855  0.4235  0.0727
18398SOL    HW156635   0.377   1.720   8.635 -0.1549 -0.1579  0.2639
18398SOL    HW256636   0.248   1.714   8.714 -0.7581  1.7516 -0.4962
18399SOL     OW56637   4.280   0.938   3.600 -0.1420  0.0696  0.1428
18399SOL    HW156638   4.287   1.011   3.661 -1.3754 -1.0316  1.6784
18399SOL    HW256639   4.273   0.861   3.656 -0.0134 -1.1241 -1.4189
18400SOL     OW56640   5.833   4.764   7.215  0.4897 -0.1161  0.1647
18400SOL    HW156641   5.814   4.842   7.267  1.7325  0.2691  0.0767
18400SOL    HW256642   5.857   4.697   7.280 -2.3067 -1.0204  0.3854
18401SOL     OW56643   6.086   3.343  10.045  0.1715  0.0537  0.2899
18401SOL    HW156644   6.156   3.394  10.005 -0.2908  2.5765  2.4257
18401SOL    HW256645   6.118   3.324  10.133 -1.3730  0.2399  0.9093
18402SOL     OW56646   3.076   3.449  10.362 -0.5333 -0.7867 -0.3778
18402SOL    HW156647   3.113   3.535  10.384  0.5718 -1.9015  2.6967
18402SOL    HW256648   3.107   3.431  10.274  0.5034  1.2953 -0.4989
18403SOL     OW56649   4.978   7.430   5.147  0.2075  0.2196  0.1074
18403SOL    HW156650   4.921   7.360   5.179  1.3290 -0.8807 -0.2299
18403SOL    HW256651   5.014   7.396   5.065 -0.5378  1.9099 -0.9626
18404SOL     OW56652   6.047   5.604  11.450  0.1768 -0.4170  0.2295
18404SOL    HW156653   6.028   5.697  11.457 -1.6542 -0.7582  0.2009
18404SOL    HW256654   6.124   5.599  11.394 -0.1001  1.0419 -0.3064
18405SOL     OW56655   1.822   4.289   8.785 -0.0983  0.1296 -0.3309
18405SOL    HW156656   1.886   4.295   8.856  0.8645  1.3591 -1.2719
18405SOL    HW256657   1.738   4.276   8.830  0.7024 -0.8519  0.9433
18406SOL     OW56658   1.633   4.560   0.187  0.3356  0.2018 -0.2032
18406SOL    HW156659   1.647   4.629   0.252  0.5740 -1.6134  1.7559
18406SOL    HW256660   1.576   4.601   0.122 -0.0459  2.0570  1.2064
18407SOL     OW56661   6.534   3.401   2.608  0.6298 -0.2913  0.3470
18407SOL    HW156662   6.517   3.444   2.524  1.6466 -0.1209  0.2083
18407SOL    HW256663   6.567   3.472   2.664 -2.2722  0.1303  1.6849
18408SOL     OW56664   3.045   1.308   4.281 -0.1845  0.1097 -0.4292
18408SOL    HW156665   3.042   1.316   4.376  1.0439 -0.2149 -0.3359
18408SOL    HW256666   2.985   1.375   4.248  1.4051  2.1069  0.5310
18409SOL     OW56667   0.582   4.622   9.113  0.5646 -0.6703  0.7977
18409SOL    HW156668   0.658   4.679   9.104  0.8879 -1.0758  0.9041
18409SOL    HW256669   0.612   4.550   9.169  0.0633 -0.7651  0.9537
18410SOL     OW56670   7.665   0.742   1.243  0.0322  0.4770 -0.3369
18410SOL    HW156671   7.741   0.694   1.275  0.7866  1.1400 -1.0744
18410SOL    HW256672   7.673   0.737   1.147 -1.3463 -0.2040 -0.4412
18411SOL     OW56673   2.310   1.436   1.923  0.0325 -0.1332  0.1202
18411SOL    HW156674   2.378   1.437   1.991  0.7566  0.7384 -0.5868
18411SOL    HW256675   2.346   1.379   1.855 -1.0158 -1.6167  0.7521
18412SOL     OW56676   4.072   2.968   9.048  0.0052  0.0990 -0.7698
18412SOL    HW156677   4.033   2.892   9.089 -0.1285 -0.2376 -1.5013
18412SOL    HW256678   4.118   2.933   8.971  1.7144  0.4804  0.0260
18413SOL     OW56679   3.493   4.119  10.784  0.6203  0.0031  0.0587
18413SOL    HW156680   3.477   4.213  10.784  0.0671 -0.0767  1.5034
18413SOL    HW256681   3.428   4.084  10.723 -0.3211  0.3811  0.8354
18414SOL     OW56682   6.362   7.047  12.097 -0.2913  0.3725 -0.3192
18414SOL    HW156683   6.407   7.065  12.014  1.3002  0.9063  0.6262
18414SOL    HW256684   6.333   7.133  12.128  1.7274  0.6054  1.0876
18415SOL     OW56685   3.061   2.334   4.027  0.4666  0.2619  0.0019
18415SOL    HW156686   3.023   2.259   4.071 -1.2819  0.9123 -0.3320
18415SOL    HW256687   3.072   2.399   4.096  0.1339  0.3786 -0.0526
18416SOL     OW56688   5.298   5.097   9.579  0.1423  0.4981 -0.5436
18416SOL    HW156689   5.288   5.129   9.669  0.0930  0.0632 -0.3939
18416SOL    HW256690   5.359   5.159   9.539  1.2884 -0.1011  0.2087
18417SOL     OW56691   5.901   4.590   2.672  0.0849  0.7453  0.2873
18417SOL    HW156692   5.841   4.525   2.708 -0.7909  1.4223  0.0823
18417SOL    HW256693   5.959   4.613   2.745  0.9625 -0.8585  0.1468
18418SOL     OW56694   5.153   4.088  11.932 -0.5023  0.4162  0.0741
18418SOL    HW156695   5.078   4.083  11.873 -1.2473  0.2280  1.0063
18418SOL    HW256696   5.229   4.091  11.874 -1.2123  0.3605 -0.8884
18419SOL     OW56697   7.365   0.054   9.469  0.1621  0.0477  0.1251
18419SOL    HW156698   7.390  -0.035   9.444 -1.7010  0.0510 -2.1820
18419SOL    HW256699   7.444   0.106   9.455  1.0288 -1.0847  0.6542
18420SOL     OW56700   3.416   0.865   8.526  0.3600  0.0700  0.4369
18420SOL    HW156701   3.396   0.794   8.588 -0.1840  0.6339  0.9216
18420SOL    HW256702   3.337   0.872   8.473 -0.4773  1.7373  1.7982
18421SOL     OW56703   0.351   7.841   8.842  0.2733 -0.3806  0.1187
18421SOL    HW156704   0.381   7.932   8.853  2.0075 -1.1290  2.5859
18421SOL    HW256705   0.432   7.790   8.842 -0.6625 -1.9345 -1.4190
18422SOL     OW56706   1.494   6.501   6.075  0.1113 -0.3398  0.4476
18422SOL    HW156707   1.400   6.490   6.084  0.1764 -0.4134  1.0616
18422SOL    HW256708   1.529   6.488   6.163  0.9028 -2.4884 -0.1034
18423SOL     OW56709   5.813   6.489   0.344 -0.0891 -0.0537  0.1058
18423SOL    HW156710   5.873   6.452   0.278  0.9405 -0.2147  1.0924
18423SOL    HW256711   5.787   6.573   0.308  0.9568  0.1425 -0.2432
18424SOL     OW56712   3.996   6.646   9.464 -0.4513  0.4299 -0.1035
18424SOL    HW156713   3.955   6.718   9.416  0.0344  0.7677 -0.0240
18424SOL    HW256714   4.090   6.661   9.453 -0.2556  1.4548  2.2511
18425SOL     OW56715   0.171   3.883   7.097 -0.1760 -0.3172 -0.0604
18425SOL    HW156716   0.147   3.843   7.013 -1.8540 -0.5424  0.4999
18425SOL    HW256717   0.122   3.965   7.100 -1.8674 -1.3075  1.5981
18426SOL     OW56718   6.810   3.384  11.199  0.3976 -0.2179  0.0453
18426SOL    HW156719   6.735   3.443  11.190 -0.1746 -1.0057 -0.4965
18426SOL    HW256720   6.781   3.302  11.159  1.6280 -0.4698 -0.3810
18427SOL     OW56721   4.670   5.579   0.304  0.0554  0.0719 -0.6121
18427SOL    HW156722   4.648   5.488   0.281  0.6694 -0.6087  1.3196
18427SOL    HW256723   4.611   5.632   0.251  0.4001 -1.3895 -2.6062
18428SOL     OW56724   6.847   4.167   9.377 -0.3851  0.3108 -0.6358
18428SOL    HW156725   6.872   4.110   9.450 -0.4981  0.5271 -0.4270
18428SOL    HW256726   6.790   4.113   9.323 -0.6750  0.2959 -0.3186
18429SOL     OW56727   6.429   1.306   0.915 -0.0554  0.3007 -0.1217
18429SOL    HW156728   6.516   1.318   0.878  0.0081  0.3416  0.0407
18429SOL    HW256729   6.371   1.352   0.854 -0.2997 -1.9783 -1.7069
18430SOL     OW56730   5.447   2.922   8.519  0.0851 -0.0913 -0.4149
18430SOL    HW156731   5.405   2.898   8.602 -2.0167  0.1386 -1.3295
18430SOL    HW256732   5.524   2.866   8.514 -0.9461 -1.7178  0.6979
18431SOL     OW56733   0.756   0.209   5.183 -0.1541 -0.3343  0.2671
18431SOL    HW156734   0.697   0.144   5.146 -0.1653  0.3647 -1.0026
18431SOL    HW256735   0.806   0.162   5.250  0.5391 -1.9012 -1.2854
18432SOL     OW56736   5.046   7.774   7.822 -0.5127 -0.3003 -0.0348
18432SOL    HW156737   5.033   7.679   7.832  1.5664 -0.8555 -1.8250
18432SOL    HW256738   5.030   7.791   7.729  0.1744  0.8874  0.0441
18433SOL     OW56739   5.258   1.671   8.609  0.2994  0.2349 -0.5576
18433SOL    HW156740   5.348   1.640   8.617  0.2368 -0.1134 -1.1123
18433SOL    HW256741   5.264   1.744   8.547  0.0901 -0.3456 -1.2814
18434SOL     OW56742   0.051   2.190   1.352 -0.8463  0.0010  0.6559
18434SOL    HW156743  -0.044   2.201   1.342 -0.6590 -0.1473 -1.7605
18434SOL    HW256744   0.063   2.095   1.358 -0.9003  0.0590  2.2460
18435SOL     OW56745   5.989   2.178   4.797 -0.0079 -0.4998  0.1653
18435SOL    HW156746   6.007   2.090   4.763 -2.3876 -1.1311  0.3290
18435SOL    HW256747   5.996   2.169   4.892 -1.0464 -0.7723  0.2359
18436SOL     OW56748   2.080   7.301   6.914  0.3340  0.2826  0.2687
18436SOL    HW156749   2.006   7.252   6.949 -0.6884  0.3261 -1.6595
18436SOL    HW256750   2.040   7.381   6.879  1.0366 -0.2889 -1.9854
18437SOL     OW56751   5.262   6.903   5.555  0.5984 -0.0293 -0.2018
18437SOL    HW156752   5.329   6.862   5.499 -0.5557  0.5911 -2.1622
18437SOL    HW256753   5.179   6.873   5.518 -0.2472 -0.0637  1.6188
18438SOL     OW56754   4.566   2.325   3.718 -0.1737 -0.1629  0.3078
18438SOL    HW156755   4.597   2.243   3.758 -1.1482 -1.8139 -2.0946
18438SOL    HW256756   4.593   2.318   3.627 -1.5065  1.5935 -0.2641
18439SOL     OW56757   7.025   6.110   9.113  0.0778 -0.3060  0.3918
18439SOL    HW156758   6.986   6.078   9.032 -1.1424  1.2479  0.3170
18439SOL    HW256759   7.114   6.135   9.089  0.7554 -2.6110  0.2505
18440SOL     OW56760   7.129   2.591   6.418 -0.3056  0.2868 -0.3599
18440SOL    HW156761   7.124   2.504   6.457  0.0193  0.7242  0.6839
18440SOL    HW256762   7.064   2.643   6.464  0.4202  0.9450 -0.0401
18441SOL     OW56763   5.128   7.275   8.783  0.0740 -0.0510 -0.2245
18441SOL    HW156764   5.211   7.249   8.741 -0.4402 -2.7028  0.2428
18441SOL    HW256765   5.061   7.228   8.734 -1.0168  0.8347  0.3881
18442SOL     OW56766   3.371   5.634   6.129 -0.5598  0.8196  0.0504
18442SOL    HW156767   3.346   5.715   6.174  0.6609  1.4947 -0.4404
18442SOL    HW256768   3.288   5.588   6.116 -0.9851  0.4694  3.1441
18443SOL     OW56769   4.901   2.785   2.839 -0.1440  0.3213 -0.0974
18443SOL    HW156770   4.893   2.853   2.772  1.6131  0.9777  0.2927
18443SOL    HW256771   4.987   2.800   2.878  0.1510 -1.9166  0.2553
18444SOL     OW56772   2.550   7.191   8.622  1.1808 -0.2347 -0.0719
18444SOL    HW156773   2.562   7.128   8.551  3.4841  0.3111 -0.2376
18444SOL    HW256774   2.623   7.176   8.681 -1.0915 -1.2046  2.7374
18445SOL     OW56775   7.418   6.713   9.655 -0.6397  0.0384  0.1680
18445SOL    HW156776   7.358   6.644   9.681  0.4618 -0.6288  1.0241
18445SOL    HW256777   7.363   6.791   9.645 -1.5040 -0.2829  2.0074
18446SOL     OW56778   3.857   5.697   2.191 -0.4485  1.0153  0.0794
18446SOL    HW156779   3.894   5.679   2.105  0.2341 -1.1128  0.7487
18446SOL    HW256780   3.773   5.650   2.192  0.2552 -0.2985  1.0614
18447SOL     OW56781   2.748   5.473   1.966  0.2430 -0.1112  0.2151
18447SOL    HW156782   2.822   5.414   1.985  1.6210  1.3370 -0.3940
18447SOL    HW256783   2.788   5.560   1.964 -0.9925  0.4893 -2.6484
18448SOL     OW56784   4.941   7.058   6.427 -0.5487  0.2270  0.1868
18448SOL    HW156785   4.925   6.967   6.452 -0.6985  0.2745  0.2658
18448SOL    HW256786   4.856   7.091   6.398 -0.3252  0.1061 -0.6109
18449SOL     OW56787   4.457   4.251   4.880  0.3640  0.4568 -0.1861
18449SOL    HW156788   4.441   4.191   4.953 -1.3279 -0.7312 -1.4369
18449SOL    HW256789   4.502   4.325   4.919  0.9868 -0.8702  1.7451
18450SOL     OW56790   5.176   5.213  11.605 -0.4786  0.2190 -0.4948
18450SOL    HW156791   5.108   5.274  11.636  0.4449  1.2961 -0.5081
18450SOL    HW256792   5.201   5.247  11.520 -0.3593 -0.5442 -0.7692
18451SOL     OW56793   7.864   6.943   4.894  0.6148  0.5244 -0.1068
18451SOL    HW156794   7.883   6.996   4.971 -0.2389  2.3223 -1.0516
18451SOL    HW256795   7.817   6.867   4.927  0.4121  1.1768  1.1598
18452SOL     OW56796   3.724   0.018   9.595 -0.2433  0.3237 -0.0482
18452SOL    HW156797   3.664   0.093   9.589 -0.0422  0.4452 -0.5883
18452SOL    HW256798   3.776   0.022   9.514 -0.9863 -1.0417 -0.6371
18453SOL     OW56799   6.935   3.223   2.472 -0.0495 -0.1423 -0.1259
18453SOL    HW156800   6.859   3.172   2.444 -0.6362 -0.3914  1.7567
18453SOL    HW256801   7.007   3.159   2.474 -0.2247 -0.3406 -0.1166
18454SOL     OW56802   5.013   0.994   4.542 -0.2083  0.1840  0.2827
18454SOL    HW156803   5.062   0.923   4.502 -1.2397 -0.6554  0.4641
18454SOL    HW256804   5.017   1.066   4.479 -0.6913 -0.6627 -0.7229
18455SOL     OW56805   5.504   3.837   5.169  0.3292 -0.2800  0.2191
18455SOL    HW156806   5.420   3.800   5.193 -0.0976  0.4270 -0.1457
18455SOL    HW256807   5.535   3.782   5.097  0.7921 -1.3239  1.1832
18456SOL     OW56808   7.167   1.645   2.667  0.0564  0.4622 -0.0713
18456SOL    HW156809   7.218   1.603   2.736  0.2007 -1.0647 -1.0722
18456SOL    HW256810   7.101   1.581   2.642 -1.0732  1.6388 -0.2127
18457SOL     OW56811   2.819   6.129   7.663 -0.0333  0.3254 -0.2076
18457SOL    HW156812   2.808   6.082   7.580 -1.2344 -0.4119  0.3433
18457SOL    HW256813   2.851   6.063   7.724  0.9843  0.9020 -0.1123
18458SOL     OW56814   5.766   4.855   0.141 -0.2616 -0.0307 -0.0965
18458SOL    HW156815   5.797   4.926   0.085 -0.2285  0.5522  0.6572
18458SOL    HW256816   5.824   4.857   0.216 -0.5558 -0.5584  0.1476
18459SOL     OW56817   0.149   0.566  11.684  0.0872  0.0290 -0.0921
18459SOL    HW156818   0.179   0.635  11.624 -0.7632 -1.6965 -2.6938
18459SOL    HW256819   0.058   0.590  11.703  0.0666  0.1042 -0.2758
18460SOL     OW56820   6.421   4.468   2.391 -0.4226 -0.6313  0.2802
18460SOL    HW156821   6.386   4.380   2.378  1.8138 -1.6477  0.6451
18460SOL    HW256822   6.446   4.471   2.484 -0.0764  0.2215  0.1747
18461SOL     OW56823   3.469   0.090   4.469  0.1931  0.2776  0.0502
18461SOL    HW156824   3.497   0.060   4.382  2.8063 -0.3340  0.9921
18461SOL    HW256825   3.510   0.028   4.530 -1.0069  1.0827  1.7699
18462SOL     OW56826   5.149   3.088  11.154 -0.7824  0.1369 -0.1377
18462SOL    HW156827   5.069   3.057  11.197 -1.2003  0.2930 -0.7911
18462SOL    HW256828   5.170   3.020  11.089 -0.2072 -0.0545  0.2377
18463SOL     OW56829   7.412   4.400   8.635 -0.3848  0.0299  0.0731
18463SOL    HW156830   7.397   4.323   8.581  0.5653  0.0850 -0.2868
18463SOL    HW256831   7.429   4.364   8.723 -2.5619 -0.0283  0.5133
18464SOL     OW56832   6.690   2.874   7.479 -0.4612  0.0064 -0.1759
18464SOL    HW156833   6.600   2.903   7.481 -0.8998 -1.0598 -1.7764
18464SOL    HW256834   6.720   2.895   7.390  0.2604 -1.2425 -0.2628
18465SOL     OW56835   5.592   4.690   0.722 -0.3295  0.8794 -0.3877
18465SOL    HW156836   5.578   4.781   0.695 -0.3725  0.8719 -0.3920
18465SOL    HW256837   5.586   4.640   0.640  0.9586  1.0042 -0.5834
18466SOL     OW56838   0.730   7.464   8.657 -0.6809 -0.2801 -0.0418
18466SOL    HW156839   0.799   7.504   8.604  0.0748 -2.3860 -0.7353
18466SOL    HW256840   0.665   7.434   8.593 -1.3971  0.1006  0.4905
18467SOL     OW56841   4.141   6.072   1.499 -0.1698  0.0841 -0.4734
18467SOL    HW156842   4.092   6.150   1.527  0.4567  0.2682  0.1522
18467SOL    HW256843   4.114   6.004   1.562 -0.9204 -0.2949 -1.1807
18468SOL     OW56844   6.218   4.450  12.266 -0.5131  0.2763  0.0708
18468SOL    HW156845   6.127   4.477  12.256 -0.0875  1.2877 -1.3556
18468SOL    HW256846   6.234   4.453  12.361 -2.8006 -2.9659  0.7117
18469SOL     OW56847   5.719   4.985  11.045  0.1530  0.3747 -0.3479
18469SOL    HW156848   5.675   5.070  11.037 -3.0527 -0.8034  2.5223
18469SOL    HW256849   5.656   4.922  11.011 -0.3650 -1.3781  3.3984
18470SOL     OW56850   3.243   6.996   4.599  0.1750  0.3586  0.1896
18470SOL    HW156851   3.283   7.079   4.623  0.9798  0.3135 -0.9191
18470SOL    HW256852   3.262   6.938   4.673  1.3207  0.6208  0.1197
18471SOL     OW56853   0.496   6.556   1.598  0.2944 -0.2777  0.3603
18471SOL    HW156854   0.543   6.618   1.653  2.4342  0.4487 -2.1367
18471SOL    HW256855   0.542   6.473   1.610  0.1854 -0.3407  0.3468
18472SOL     OW56856   4.503   5.060   6.023  0.0834 -0.1666 -0.3660
18472SOL    HW156857   4.545   5.114   6.090 -0.0198 -1.8846  1.1895
18472SOL    HW256858   4.564   5.059   5.950  0.4252  1.3848 -0.1308
18473SOL     OW56859   3.644   0.592   2.358 -0.0956 -0.1735 -0.0822
18473SOL    HW156860   3.582   0.614   2.288  0.5370 -1.5526 -1.1274
18473SOL    HW256861   3.619   0.504   2.386  1.0170 -0.5241 -0.1336
18474SOL     OW56862   1.521   7.549   3.397 -0.2225  0.6584 -0.5043
18474SOL    HW156863   1.584   7.587   3.459  0.1681  0.9661 -1.0687
18474SOL    HW256864   1.441   7.537   3.447  1.2194 -3.0927  1.2826
18475SOL     OW56865   0.637   6.786   7.818  0.1355 -0.2661 -0.3093
18475SOL    HW156866   0.627   6.844   7.894  0.6951  0.9490 -1.1281
18475SOL    HW256867   0.548   6.758   7.798 -0.5203  2.2238 -1.2963
18476SOL     OW56868   1.932   6.422   5.988  0.2158 -0.1617 -0.6385
18476SOL    HW156869   1.959   6.453   6.075 -1.2060 -0.4978 -0.0500
18476SOL    HW256870   1.959   6.330   5.987 -1.4955 -0.7093  0.2450
18477SOL     OW56871   1.425   5.122   5.646  0.2575  0.1634  0.3137
18477SOL    HW156872   1.378   5.094   5.725 -0.7247 -0.8136 -0.5888
18477SOL    HW256873   1.420   5.047   5.587  2.1794  0.3708 -0.1790
18478SOL     OW56874   5.195   2.172  12.307  0.9975 -0.6013  0.2119
18478SOL    HW156875   5.105   2.145  12.289  0.5430  0.5268  0.7352
18478SOL    HW256876   5.247   2.124  12.243  0.0255 -1.2310 -0.1340
18479SOL     OW56877   3.608   6.355   0.396 -0.1359 -0.0360  0.2007
18479SOL    HW156878   3.613   6.432   0.339 -0.9351  0.0271  0.1970
18479SOL    HW256879   3.629   6.281   0.339  0.6193  0.1705  0.2002
18480SOL     OW56880   2.022   2.573   3.008  0.1775 -0.7477  0.4704
18480SOL    HW156881   1.951   2.609   2.953  2.5497  0.7997 -1.8170
18480SOL    HW256882   1.995   2.483   3.025 -2.5982 -0.0695  0.2219
18481SOL     OW56883   1.865   2.926   6.319 -0.1771 -0.7703 -0.0567
18481SOL    HW156884   1.827   2.845   6.287 -3.1431  0.7748 -0.8314
18481SOL    HW256885   1.834   2.934   6.409 -1.1679  0.1819 -0.4663
18482SOL     OW56886   4.568   6.648   8.232 -0.4779 -0.0070 -1.0016
18482SOL    HW156887   4.594   6.737   8.207 -0.1206  0.3681  0.6184
18482SOL    HW256888   4.485   6.634   8.186 -1.2477  1.7008 -0.2299
18483SOL     OW56889   1.290   0.960  10.550  0.0501 -0.5003 -0.2347
18483SOL    HW156890   1.235   0.907  10.492  0.5320  0.5385 -1.6971
18483SOL    HW256891   1.228   1.005  10.607 -0.6050  0.0532 -1.3437
18484SOL     OW56892   2.356   6.674   4.686  0.2866 -0.3950  0.3221
18484SOL    HW156893   2.387   6.649   4.773  2.2949 -3.3322 -1.0749
18484SOL    HW256894   2.278   6.727   4.702  0.7924 -0.5150  3.8759
18485SOL     OW56895   2.466   0.683   7.556 -0.4406 -0.6560 -0.3298
18485SOL    HW156896   2.519   0.615   7.514 -0.9744 -2.5980  1.9448
18485SOL    HW256897   2.390   0.637   7.592 -2.1739  1.5834 -0.8773
18486SOL     OW56898   5.014   1.798  11.137 -0.3147 -0.2148  0.5863
18486SOL    HW156899   4.942   1.821  11.195 -0.8900  0.0076 -0.1927
18486SOL    HW256900   4.971   1.764  11.058  0.4689 -1.5107  0.6912
18487SOL     OW56901   1.668   2.955   7.969  0.2200  0.1981 -0.0591
18487SOL    HW156902   1.639   2.873   8.008 -2.5478  1.2807  0.3699
18487SOL    HW256903   1.750   2.976   8.013  1.5515 -2.7869 -0.9095
18488SOL     OW56904   0.643   6.519  11.060  0.1353  0.1628 -0.5565
18488SOL    HW156905   0.694   6.439  11.073  0.1086  0.1298 -0.6505
18488SOL    HW256906   0.687   6.564  10.988  0.4450  0.4781 -0.1724
18489SOL     OW56907   6.482   2.144   9.710  0.0097 -0.0195 -0.5008
18489SOL    HW156908   6.558   2.087   9.699 -0.4739 -0.8963  0.5431
18489SOL    HW256909   6.454   2.130   9.801  0.2362  2.3270  0.0097
18490SOL     OW56910   2.892   1.567   9.470 -0.2721  0.2748 -0.3434
18490SOL    HW156911   2.899   1.551   9.564  1.8719  0.3476 -0.4362
18490SOL    HW256912   2.939   1.649   9.456 -0.9573  0.5024 -1.4311
18491SOL     OW56913   3.421   5.921  11.447  0.0209 -0.3324 -0.4657
18491SOL    HW156914   3.489   5.981  11.478  0.5478 -0.1966 -1.8147
18491SOL    HW256915   3.440   5.909  11.354 -3.3609  1.8547 -1.6331
18492SOL     OW56916   2.357   7.364   8.716 -0.2852 -0.1786  0.1476
18492SOL    HW156917   2.417   7.297   8.682 -1.9522 -1.3676 -0.5907
18492SOL    HW256918   2.414   7.430   8.754  1.5182 -0.8919 -1.1722
18493SOL     OW56919   5.012   0.539   3.737  0.0171  0.1753  0.4047
18493SOL    HW156920   4.956   0.614   3.758  0.1165  0.5999 -0.7604
18493SOL    HW256921   4.951   0.470   3.712 -0.0317  0.7372 -1.1792
18494SOL     OW56922   0.344   2.460   9.573  0.1246  0.5071  0.0182
18494SOL    HW156923   0.342   2.471   9.478  2.8034 -0.9513 -0.3189
18494SOL    HW256924   0.406   2.526   9.603  1.1020 -0.5484  0.4005
18495SOL     OW56925   3.667   7.354   4.265  0.5706 -0.6566  0.3159
18495SOL    HW156926   3.656   7.276   4.210  0.4653 -1.7350  1.7964
18495SOL    HW256927   3.755   7.384   4.247  0.9790 -1.7213  0.4416
18496SOL     OW56928   3.059   7.212   9.862  0.0376 -0.5542  0.0931
18496SOL    HW156929   3.113   7.156   9.807 -0.1633 -0.3441 -0.3279
18496SOL    HW256930   3.079   7.185   9.951  1.5469  0.1477  0.0072
18497SOL     OW56931   3.824   5.109   5.628 -0.4185 -0.0128  0.2409
18497SOL    HW156932   3.795   5.046   5.694 -0.8243 -0.2611 -0.1682
18497SOL    HW256933   3.768   5.091   5.552  0.1488  0.1630 -0.2236
18498SOL     OW56934   3.057   3.216  10.121 -0.6374 -0.5179  0.5829
18498SOL    HW156935   3.141   3.261  10.123 -1.5488  1.2739  0.7638
18498SOL    HW256936   3.079   3.124  10.108  1.2682  0.1611 -1.6452
18499SOL     OW56937   4.682   0.848   3.542  0.0981  0.3628 -0.4671
18499SOL    HW156938   4.713   0.908   3.610 -2.2725  1.0842  0.0434
18499SOL    HW256939   4.613   0.797   3.584 -0.7732  0.1579 -2.0736
18500SOL     OW56940   4.694   4.256   9.771 -0.0083 -0.4983 -0.2695
18500SOL    HW156941   4.617   4.281   9.823  0.7267 -0.3325  0.7794
18500SOL    HW256942   4.673   4.283   9.682 -1.4771 -1.1482 -0.1543
18501SOL     OW56943   5.077   0.336   4.996  0.0285 -0.1977 -0.2026
18501SOL    HW156944   5.092   0.418   4.950  0.7369  1.0647  2.1206
18501SOL    HW256945   5.134   0.273   4.953  0.3804  0.8074 -1.2502
18502SOL     OW56946   5.797   7.856   1.874  0.2980 -0.1584 -0.4476
18502SOL    HW156947   5.720   7.800   1.879  0.6916 -0.8709 -1.9227
18502SOL    HW256948   5.858   7.809   1.817  1.8967  0.3207  0.7954
18503SOL     OW56949   7.651   1.547  12.357  0.0218 -0.0261  0.0113
18503SOL    HW156950   7.566   1.505  12.371 -0.4428  1.1982  1.0813
18503SOL    HW256951   7.703   1.481  12.311 -0.9755 -1.4030  0.7743
18504SOL     OW56952   7.508   3.957  10.745 -0.5662  0.1041  0.1286
18504SOL    HW156953   7.469   3.910  10.671 -1.5426  0.0055  0.6964
18504SOL    HW256954   7.449   3.940  10.818  1.8749 -2.2626  1.7159
18505SOL     OW56955   3.888   5.095   2.236  0.1712  0.3983 -0.1378
18505SOL    HW156956   3.803   5.052   2.236  1.1817 -1.8129 -1.6145
18505SOL    HW256957   3.933   5.059   2.313  0.1104  0.7889  0.0788
18506SOL     OW56958   3.633   2.994  10.231 -0.0594  0.5916  0.7413
18506SOL    HW156959   3.703   2.955  10.178 -1.3750 -0.1484 -0.5324
18506SOL    HW256960   3.678   3.026  10.309  1.4313 -1.6696  0.9293
18507SOL     OW56961   4.326   3.401   4.453  0.5670 -0.5526  0.4030
18507SOL    HW156962   4.230   3.394   4.457  0.6675 -1.9833  0.6944
18507SOL    HW256963   4.356   3.357   4.532  1.4534  0.9231  0.9283
18508SOL     OW56964   2.038   4.868   8.050 -0.0675 -0.5946  0.1779
18508SOL    HW156965   2.129   4.837   8.056 -0.0913 -0.8673 -0.6969
18508SOL    HW256966   2.008   4.836   7.964 -1.4300 -1.6864  1.0249
18509SOL     OW56967   7.721   0.706   0.454 -0.4026 -0.0680 -0.1387
18509SOL    HW156968   7.647   0.672   0.504 -1.1251 -0.1274 -1.2122
18509SOL    HW256969   7.708   0.801   0.453 -1.2390 -0.1735 -1.4649
18510SOL     OW56970   6.504   7.900   0.702 -0.1487 -0.0018  0.0366
18510SOL    HW156971   6.564   7.826   0.686  0.6778  1.0159 -1.9247
18510SOL    HW256972   6.559   7.978   0.692 -1.1543  0.9246  1.4187
18511SOL     OW56973   7.637   5.300   0.184  0.2239  0.3398  0.2562
18511SOL    HW156974   7.610   5.252   0.106 -1.9023  0.0074  1.1124
18511SOL    HW256975   7.595   5.386   0.176 -1.3940 -0.2459  1.7144
18512SOL     OW56976   4.783   6.164   6.614  0.0658 -0.2331 -0.1078
18512SOL    HW156977   4.792   6.243   6.561  0.8052 -0.0821  0.2244
18512SOL    HW256978   4.821   6.189   6.699  0.0243 -0.8493  0.0918
18513SOL     OW56979   5.513   3.930   9.472  0.1912  0.3329  0.5006
18513SOL    HW156980   5.519   4.011   9.522  0.5567  0.7549 -0.2061
18513SOL    HW256981   5.440   3.945   9.412 -0.2080 -0.1457  0.8628
18514SOL     OW56982   5.326   5.851   9.068 -0.4437  0.0823  0.5703
18514SOL    HW156983   5.353   5.893   9.149 -3.4653 -0.4065  1.9434
18514SOL    HW256984   5.400   5.865   9.008  1.3571  1.5450  2.9661
18515SOL     OW56985   0.444   4.142  11.387 -0.4227  0.6601 -0.2689
18515SOL    HW156986   0.532   4.143  11.351 -0.1180 -0.9054  0.3692
18515SOL    HW256987   0.396   4.206  11.334  1.3905  2.5095  0.2150
18516SOL     OW56988   0.418   6.932   7.507 -0.3034  0.5574  0.1690
18516SOL    HW156989   0.366   6.877   7.565 -0.5813  0.7215  0.0818
18516SOL    HW256990   0.469   6.988   7.566  0.2586 -0.0407  0.2599
18517SOL     OW56991   1.389   5.468   3.789  0.3133 -0.0791  0.7298
18517SOL    HW156992   1.477   5.443   3.761  0.3528  1.9767 -1.3528
18517SOL    HW256993   1.354   5.518   3.715 -2.0057  0.5213  2.1235
18518SOL     OW56994   3.131   7.026   9.683  0.0954  0.8735 -0.8490
18518SOL    HW156995   3.092   7.081   9.616  0.6224  1.4159 -0.7217
18518SOL    HW256996   3.216   7.001   9.647  0.2674  0.9459 -0.5001
18519SOL     OW56997   0.632   7.643  11.998 -0.5847 -0.1455 -0.3753
18519SOL    HW156998   0.564   7.711  11.990 -0.3468  0.2238  0.6319
18519SOL    HW256999   0.677   7.646  11.914  0.0091  1.6001 -0.0432
18520SOL     OW57000   3.135   0.564   8.500  0.6137 -0.3979  0.4277
18520SOL    HW157001   3.081   0.512   8.559  1.5778 -0.3861  1.3616
18520SOL    HW257002   3.166   0.636   8.555  0.0316  0.6674 -0.6043
18521SOL     OW57003   3.950   6.319   7.443 -0.0033  0.2673  0.2469
18521SOL    HW157004   3.867   6.271   7.446 -0.5505  1.1405 -0.3636
18521SOL    HW257005   3.928   6.401   7.399  1.3500  0.1740 -0.6677
18522SOL     OW57006   4.798   7.888   5.193 -0.2861 -0.4478 -0.2131
18522SOL    HW157007   4.865   7.955   5.206 -1.0734  0.3097  0.0257
18522SOL    HW257008   4.803   7.867   5.100 -0.6700  0.6462 -0.4941
18523SOL     OW57009   5.262   1.885   4.336 -0.3979  0.4460 -0.8195
18523SOL    HW157010   5.246   1.854   4.247 -1.4615 -2.0911  0.1770
18523SOL    HW257011   5.346   1.846   4.361 -0.6724  0.1670 -0.3128
18524SOL     OW57012   7.174   2.523   2.607  0.1878  0.3379 -0.5128
18524SOL    HW157013   7.231   2.449   2.627 -0.0422  0.1164 -0.6714
18524SOL    HW257014   7.117   2.530   2.684  1.1002  1.2055  0.0963
18525SOL     OW57015   6.742   2.820   9.873 -0.2211  0.1800  0.0577
18525SOL    HW157016   6.748   2.795   9.781 -1.2758  0.5382 -0.1241
18525SOL    HW257017   6.815   2.775   9.916 -0.1150 -0.5105 -0.8344
18526SOL     OW57018   5.940   7.789   0.691  0.7817  0.4589 -0.7261
18526SOL    HW157019   6.021   7.827   0.656  1.8817 -0.9735  0.1360
18526SOL    HW257020   5.929   7.828   0.777  2.1624 -1.3593  0.3549
18527SOL     OW57021   5.950   2.470   1.930 -0.1610  0.3199  0.4251
18527SOL    HW157022   6.037   2.436   1.952  0.6000  1.3179 -0.8331
18527SOL    HW257023   5.968   2.553   1.886 -1.7377  0.2335 -0.4499
18528SOL     OW57024   4.739   6.759   4.814 -0.5552 -0.3043  0.1649
18528SOL    HW157025   4.813   6.809   4.847 -1.3440  0.4965  0.7874
18528SOL    HW257026   4.701   6.718   4.892 -1.0295 -0.3416 -0.0843
18529SOL     OW57027   4.295   5.360  12.074 -0.2504 -0.1414  0.2202
18529SOL    HW157028   4.322   5.429  12.135  2.5756 -0.0839 -0.9283
18529SOL    HW257029   4.235   5.404  12.014 -0.3295  0.7010  0.8982
18530SOL     OW57030   0.656   2.249  10.436 -0.2863  0.0073 -0.5492
18530SOL    HW157031   0.695   2.183  10.378 -0.8057  1.3086 -2.4635
18530SOL    HW257032   0.692   2.229  10.522  0.6633 -1.9041 -1.3289
18531SOL     OW57033   1.019   3.033   1.295  0.3312  0.0713 -0.1878
18531SOL    HW157034   1.045   3.023   1.387  0.5717 -0.2459 -0.2874
18531SOL    HW257035   1.088   3.085   1.256  0.6249 -0.4404 -0.3620
18532SOL     OW57036   2.305   7.143   6.872  0.0728 -0.2514  0.1923
18532SOL    HW157037   2.238   7.211   6.867  2.4806  2.2439 -0.9817
18532SOL    HW257038   2.318   7.115   6.781  1.3054  0.0954  0.2421
18533SOL     OW57039   5.401   2.420   3.013 -0.0771 -0.4808 -0.1810
18533SOL    HW157040   5.394   2.328   3.038 -0.8065 -0.1542  0.8976
18533SOL    HW257041   5.395   2.468   3.096  1.1840  0.5129 -0.6307
18534SOL     OW57042   1.028   7.894   4.002 -0.8709 -0.1912 -0.0923
18534SOL    HW157043   0.958   7.953   4.032 -0.5509 -0.0095  0.3018
18534SOL    HW257044   1.017   7.815   4.056 -0.3556  0.0981  0.4466
18535SOL     OW57045   1.049   0.820   4.280 -0.1557 -0.3365 -0.2245
18535SOL    HW157046   1.140   0.839   4.258  0.3886  1.7401  3.1159
18535SOL    HW257047   1.004   0.904   4.273 -1.2634 -0.8416  0.4386
18536SOL     OW57048   2.936   2.557   6.657 -0.1957 -0.2151 -0.3424
18536SOL    HW157049   2.955   2.648   6.679  0.1634 -0.4505  0.3499
18536SOL    HW257050   3.010   2.507   6.691 -0.9628 -0.8953  0.3896
18537SOL     OW57051   5.807   5.722   7.557  0.4401 -0.1158 -0.2826
18537SOL    HW157052   5.809   5.818   7.556  0.0177 -0.0702  1.1139
18537SOL    HW257053   5.719   5.700   7.529  0.5529 -0.1010 -0.6528
18538SOL     OW57054   3.915   5.303   1.304 -0.3194 -0.0613 -0.4425
18538SOL    HW157055   3.941   5.377   1.360  0.7900 -1.9575  1.7155
18538SOL    HW257056   3.821   5.294   1.318 -0.4060  0.6925 -0.4572
18539SOL     OW57057   2.790   5.942   4.794 -0.0166 -0.1228  0.2914
18539SOL    HW157058   2.701   5.909   4.778  0.5257 -0.6743 -2.0121
18539SOL    HW257059   2.829   5.876   4.851 -0.5407 -0.8691 -0.1738
18540SOL     OW57060   0.438   7.063  11.192  0.1538  0.3627  0.3754
18540SOL    HW157061   0.360   7.043  11.244 -0.2473 -2.6625 -1.1988
18540SOL    HW257062   0.406   7.123  11.124 -0.5390  0.0122  0.3842
18541SOL     OW57063   7.710   7.504   1.180  0.2057 -0.0543  0.5833
18541SOL    HW157064   7.771   7.564   1.224 -0.4953  0.0225  1.4884
18541SOL    HW257065   7.759   7.422   1.171  0.4595  0.0167  1.2733
18542SOL     OW57066   6.191   2.818  10.545 -0.4100  0.8386  0.4029
18542SOL    HW157067   6.264   2.807  10.605 -0.0839  0.5573 -0.0366
18542SOL    HW257068   6.232   2.836  10.460 -0.7286 -1.6498 -0.3664
18543SOL     OW57069   0.016   1.314   5.543  0.4454 -0.9023 -0.2534
18543SOL    HW157070  -0.063   1.339   5.495  0.7628  0.6853  0.0258
18543SOL    HW257071   0.084   1.307   5.475  0.1274 -2.1695 -0.4787
18544SOL     OW57072   1.960   2.448   1.366 -0.3820  0.1158  0.2731
18544SOL    HW157073   1.922   2.514   1.308 -0.5481  0.0847  0.3449
18544SOL    HW257074   2.054   2.454   1.351 -0.4258  0.0846 -0.0237
18545SOL     OW57075   0.551   2.703  12.155  0.1222  0.0000  0.1264
18545SOL    HW157076   0.639   2.735  12.138 -0.3157  0.2428 -2.0683
18545SOL    HW257077   0.500   2.782  12.172  0.1046 -0.0267  0.1969
18546SOL     OW57078   0.559   2.731  11.525 -0.0292  0.1657  0.6877
18546SOL    HW157079   0.497   2.769  11.587 -0.7888  0.5667 -0.3049
18546SOL    HW257080   0.611   2.805  11.494 -0.1892  0.0948  0.2429
18547SOL     OW57081   4.788   5.077   7.500  0.8035  0.1497 -0.1949
18547SOL    HW157082   4.806   5.171   7.492 -1.7048  0.5820 -1.6641
18547SOL    HW257083   4.821   5.038   7.419  0.0468  0.1053 -0.4902
18548SOL     OW57084   0.427   6.612  11.221  0.2375 -0.4623 -0.1680
18548SOL    HW157085   0.496   6.610  11.156  0.1432  1.1239 -0.3335
18548SOL    HW257086   0.431   6.525  11.262  1.9531 -0.5880 -0.5366
18549SOL     OW57087   0.320   6.285   7.485  0.1505 -0.0368 -0.3448
18549SOL    HW157088   0.372   6.340   7.543 -1.7607  1.4585  0.0535
18549SOL    HW257089   0.376   6.209   7.467  1.4286  0.2345  2.1018
18550SOL     OW57090   4.755   1.661   6.107  0.3738  0.0090  0.1606
18550SOL    HW157091   4.779   1.597   6.040 -1.0925 -0.6771  0.2403
18550SOL    HW257092   4.700   1.611   6.168 -0.8249  1.3316  0.2098
18551SOL     OW57093   4.376   1.712   6.781  0.0623 -0.0171 -0.1115
18551SOL    HW157094   4.446   1.707   6.847 -0.6214  1.1096  0.7321
18551SOL    HW257095   4.332   1.795   6.799 -1.3651 -0.6038 -0.7564
18552SOL     OW57096   4.513   7.541  11.159 -0.5052 -0.4342 -0.7369
18552SOL    HW157097   4.441   7.598  11.130  0.7342  1.2603 -0.6161
18552SOL    HW257098   4.588   7.599  11.167  0.9064 -2.1582 -0.8458
18553SOL     OW57099   1.723   7.279  11.874  0.0243 -0.1700  0.1860
18553SOL    HW157100   1.752   7.278  11.965  0.1401  1.2723  0.1845
18553SOL    HW257101   1.639   7.326  11.876  0.2257  0.2320 -0.5018
18554SOL     OW57102   2.454   2.848   6.186  0.3641 -0.3215 -0.1025
18554SOL    HW157103   2.401   2.865   6.264 -1.9655 -2.1084 -1.1900
18554SOL    HW257104   2.480   2.757   6.193 -0.9651 -0.9075 -1.9578
18555SOL     OW57105   4.162   2.928   1.412 -0.1704 -0.3128 -0.3417
18555SOL    HW157106   4.114   2.986   1.471  0.2897  0.5601 -0.8037
18555SOL    HW257107   4.160   2.843   1.456 -1.2261 -0.0575  0.1442
18556SOL     OW57108   7.556   5.830   1.714  0.1172 -0.1951  0.1013
18556SOL    HW157109   7.461   5.847   1.717  0.2200  1.5813 -2.7397
18556SOL    HW257110   7.563   5.735   1.710 -1.7030 -0.3360 -1.4030
18557SOL     OW57111   2.749   4.014   5.979 -0.0499  0.2982 -0.2042
18557SOL    HW157112   2.661   4.038   6.007 -0.0989 -0.5246  0.4104
18557SOL    HW257113   2.793   4.097   5.960  0.2766  1.0803  3.2296
18558SOL     OW57114   6.386   4.209   7.191  0.1854  0.0428  0.1232
18558SOL    HW157115   6.449   4.195   7.120  1.3864  0.8532  0.9769
18558SOL    HW257116   6.426   4.278   7.245 -2.2384  1.8715 -0.2400
18559SOL     OW57117   1.517   3.725   6.508 -0.0970  0.4517  0.8286
18559SOL    HW157118   1.478   3.682   6.431  0.6581  0.6666  0.3170
18559SOL    HW257119   1.595   3.673   6.528  0.8494  1.5820  0.1758
18560SOL     OW57120   1.800   3.552   0.064 -0.2895  0.0094 -0.6196
18560SOL    HW157121   1.708   3.577   0.072 -0.4586  0.3209 -2.9273
18560SOL    HW257122   1.817   3.551  -0.030  2.0342 -0.2204 -0.2647
18561SOL     OW57123   3.114   1.567  11.574 -0.4151  0.0644 -0.3247
18561SOL    HW157124   3.095   1.479  11.540  1.7465 -0.5733 -0.0223
18561SOL    HW257125   3.208   1.567  11.591 -0.9092  1.2652  3.1343
18562SOL     OW57126   3.525   2.328   4.363 -0.3529  0.1423  0.2633
18562SOL    HW157127   3.585   2.292   4.297 -1.1533 -0.8586  0.0602
18562SOL    HW257128   3.449   2.270   4.361 -0.3366  0.0022  2.1920
18563SOL     OW57129   3.255   3.266   4.433 -0.2140  0.0986 -0.2603
18563SOL    HW157130   3.230   3.214   4.509 -1.6403  0.6026 -0.3568
18563SOL    HW257131   3.180   3.260   4.373 -0.7974  2.8518  0.0452
18564SOL     OW57132   1.698   5.869   0.982 -0.3459 -0.0821 -0.3009
18564SOL    HW157133   1.699   5.788   0.933 -1.4429 -0.4085  0.1867
18564SOL    HW257134   1.776   5.865   1.038 -0.4986 -0.8913 -0.1417
18565SOL     OW57135   0.437   3.212   0.352  0.3313 -0.0126 -1.0371
18565SOL    HW157136   0.454   3.286   0.409 -0.0404 -0.2134 -0.6594
18565SOL    HW257137   0.475   3.137   0.398 -1.8679 -0.5462  0.0386
18566SOL     OW57138   6.272   3.739   3.027 -0.1654  0.0364 -0.4200
18566SOL    HW157139   6.354   3.787   3.017  0.2148 -0.1748  1.3389
18566SOL    HW257140   6.217   3.769   2.955  0.1851  2.8035  0.3859
18567SOL     OW57141   7.739   0.082   4.182 -0.2077 -0.6176 -0.6255
18567SOL    HW157142   7.832   0.098   4.199 -0.5495 -0.2634  1.1204
18567SOL    HW257143   7.701   0.169   4.170 -0.2184 -0.7956 -2.1113
18568SOL     OW57144   0.107   0.223  12.225  0.0625  0.1301 -0.0500
18568SOL    HW157145   0.149   0.247  12.307 -0.6066 -0.5616  0.5033
18568SOL    HW257146   0.085   0.307  12.184  0.3525  0.4746  0.4938
18569SOL     OW57147   6.691   1.229  11.317 -0.2110 -0.0655  0.0172
18569SOL    HW157148   6.769   1.273  11.282  0.7451 -0.8059  1.1229
18569SOL    HW257149   6.727   1.155  11.366 -1.5068  0.5949  2.0600
18570SOL     OW57150   2.077   0.093   6.983 -0.7899 -0.2185  0.0803
18570SOL    HW157151   2.017   0.027   7.018 -0.9855  0.1035  0.3493
18570SOL    HW257152   2.027   0.174   6.984  0.3681  0.5551  2.4941
18571SOL     OW57153   2.528   5.932   3.206 -0.2799  0.8709  0.1426
18571SOL    HW157154   2.438   5.926   3.239 -0.1035 -3.1842  0.3727
18571SOL    HW257155   2.578   5.875   3.263  1.8555  0.6964 -1.7889
18572SOL     OW57156   6.322   0.022   5.664  0.1930  0.3526 -0.6903
18572SOL    HW157157   6.342  -0.072   5.663 -1.6456 -0.0788 -0.7230
18572SOL    HW257158   6.233   0.027   5.699  0.6952  2.1968  0.4684
18573SOL     OW57159   6.256   1.596   3.438  0.1775 -0.0990 -0.9383
18573SOL    HW157160   6.316   1.524   3.460  0.6445  0.9729  1.6470
18573SOL    HW257161   6.292   1.634   3.359  1.8041 -0.7110 -0.5275
18574SOL     OW57162   7.927   5.238   0.858 -0.1239  0.1135 -0.0891
18574SOL    HW157163   8.009   5.196   0.834 -0.8034 -0.9897 -0.5367
18574SOL    HW257164   7.953   5.326   0.887  1.4682 -0.9394  1.9720
18575SOL     OW57165   1.778   7.864   4.245 -0.2737 -0.0245  0.2130
18575SOL    HW157166   1.717   7.857   4.172  0.1814 -0.6060 -0.1196
18575SOL    HW257167   1.852   7.913   4.211  0.2133 -0.8206  0.0808
18576SOL     OW57168   2.995   0.820   4.060 -0.5266 -0.3389  0.3068
18576SOL    HW157169   2.973   0.833   4.152  0.7306 -0.9682  0.7257
18576SOL    HW257170   3.037   0.734   4.058  0.0729 -0.0313 -0.7373
18577SOL     OW57171   4.524   6.415  10.043 -0.5393 -0.0444  0.2909
18577SOL    HW157172   4.484   6.501  10.056 -2.1149 -0.8044  0.6844
18577SOL    HW257173   4.570   6.397  10.125 -0.3699  0.3331  0.2808
18578SOL     OW57174   6.750   2.001  10.440 -0.6648  0.4489  0.2383
18578SOL    HW157175   6.668   2.050  10.446 -0.8800 -0.0208  1.4887
18578SOL    HW257176   6.801   2.047  10.374 -1.4925  1.4015  0.2408
18579SOL     OW57177   1.790   0.987   7.930 -0.3619  0.7275  0.0434
18579SOL    HW157178   1.800   1.062   7.988  1.5688 -0.5433  1.4655
18579SOL    HW257179   1.854   1.002   7.860 -1.0624  1.1200 -0.5328
18580SOL     OW57180   0.636   7.547   4.082  0.1622  0.7427 -0.1749
18580SOL    HW157181   0.700   7.517   4.017 -0.0448  0.8237 -0.4149
18580SOL    HW257182   0.554   7.556   4.033 -0.6173 -1.5409  0.5674
18581SOL     OW57183   4.432   3.042   6.118  0.3995  0.0181  0.0906
18581SOL    HW157184   4.381   2.961   6.111  0.3246 -0.0643  1.3260
18581SOL    HW257185   4.393   3.101   6.054  0.3392 -0.8587 -0.7106
18582SOL     OW57186   6.195   3.709   1.862  0.3707 -0.2585  0.5410
18582SOL    HW157187   6.250   3.747   1.793  0.1388  1.5989  1.3128
18582SOL    HW257188   6.106   3.730   1.835  0.3190  1.3649  1.8458
18583SOL     OW57189   0.751   2.547   6.929 -0.4614  0.0652  0.0940
18583SOL    HW157190   0.708   2.497   6.999  1.7432 -1.5362  0.4072
18583SOL    HW257191   0.732   2.638   6.950  0.0869 -0.3484  2.8191
18584SOL     OW57192   7.371   7.212   0.275 -0.3533  0.7464 -0.4161
18584SOL    HW157193   7.329   7.210   0.361  1.4514 -0.6424  0.5131
18584SOL    HW257194   7.304   7.245   0.216 -2.4957 -0.6438  1.0900
18585SOL     OW57195   2.760   6.548   8.345 -0.3064  0.1182 -0.3280
18585SOL    HW157196   2.667   6.539   8.366 -0.2236 -0.8153 -0.3572
18585SOL    HW257197   2.806   6.507   8.418  0.1067  1.0141 -0.0666
18586SOL     OW57198   2.772   1.762  10.354 -0.1942  0.2083  0.5469
18586SOL    HW157199   2.699   1.805  10.398 -1.2467 -0.2338 -0.7017
18586SOL    HW257200   2.764   1.670  10.379 -1.4831 -0.2583 -1.3689
18587SOL     OW57201   0.007   2.420   7.252  0.1127 -0.4097  0.3734
18587SOL    HW157202   0.046   2.388   7.170  1.1043 -0.9058  1.0187
18587SOL    HW257203   0.080   2.421   7.314 -0.6058  0.0693  1.2235
18588SOL     OW57204   4.724   6.381  12.327  1.0697  0.7019 -0.1907
18588SOL    HW157205   4.812   6.394  12.293  0.6022  1.7013 -1.0961
18588SOL    HW257206   4.670   6.370  12.249  0.3060  0.6992  0.3282
18589SOL     OW57207   2.396   6.120   2.517 -0.4459  0.1099 -0.4150
18589SOL    HW157208   2.462   6.060   2.551 -0.4947  1.3204  2.0462
18589SOL    HW257209   2.315   6.069   2.517  0.0801 -0.7971 -1.6396
18590SOL     OW57210   5.530   2.984   7.975 -0.0851 -0.1316  0.3445
18590SOL    HW157211   5.454   3.041   7.978 -0.4983 -0.6979  0.9345
18590SOL    HW257212   5.508   2.919   7.908  0.7458  0.8805 -0.9490
18591SOL     OW57213   3.441   0.619   9.586  0.2263 -0.1235 -0.0998
18591SOL    HW157214   3.425   0.699   9.535 -0.3715  0.1983  0.5795
18591SOL    HW257215   3.524   0.585   9.552  0.5207  0.8185 -0.3519
18592SOL     OW57216   4.864   6.780   1.148  0.2197  0.2894 -0.0294
18592SOL    HW157217   4.781   6.772   1.100 -0.1234 -0.9711  0.7259
18592SOL    HW257218   4.856   6.717   1.219  1.1733  1.3323  1.0408
18593SOL     OW57219   5.625   1.709   5.855 -0.4445  0.1628  0.0764
18593SOL    HW157220   5.687   1.676   5.791  0.8253 -1.1240  1.8624
18593SOL    HW257221   5.673   1.777   5.902 -0.4487 -0.6288  1.2737
18594SOL     OW57222   0.402   1.722   8.446  0.1508  0.0529 -0.3167
18594SOL    HW157223   0.391   1.762   8.360 -1.9814  2.3299  0.8793
18594SOL    HW257224   0.485   1.758   8.479  0.1435  0.4929 -0.7699
18595SOL     OW57225   5.137   7.259   1.386  0.0217 -0.6110 -0.3836
18595SOL    HW157226   5.102   7.170   1.389  0.1399 -0.6397  0.1694
18595SOL    HW257227   5.226   7.252   1.420 -0.2409 -0.1562  0.4362
18596SOL     OW57228   7.738   0.875   8.317 -0.1982  0.7692 -0.2323
18596SOL    HW157229   7.719   0.844   8.228  3.6058  0.0383 -0.9688
18596SOL    HW257230   7.734   0.970   8.311  0.6854  0.7640 -1.4562
18597SOL     OW57231   5.935   0.810   7.408 -0.4549  0.1573  0.0307
18597SOL    HW157232   5.858   0.830   7.462 -0.9509  1.0584 -0.9541
18597SOL    HW257233   5.937   0.881   7.344  1.2732  0.1965  0.1003
18598SOL     OW57234   6.758   3.750   3.575  0.3991 -0.3797 -0.2394
18598SOL    HW157235   6.845   3.728   3.542 -1.2196 -1.7551 -4.2558
18598SOL    HW257236   6.729   3.671   3.622  1.4022  0.2828  1.6002
18599SOL     OW57237   1.884   3.070   8.130 -0.0156 -0.3593 -0.1283
18599SOL    HW157238   1.956   3.007   8.138 -0.7889 -1.0919  1.5754
18599SOL    HW257239   1.910   3.144   8.184  0.1652  0.1026 -0.8306
18600SOL     OW57240   0.068   1.506  10.018 -0.2377  0.0804 -0.0928
18600SOL    HW157241   0.154   1.473   9.993  0.4540  1.4721  0.2972
18600SOL    HW257242   0.006   1.450   9.973  0.8802 -0.8463 -0.5264
18601SOL     OW57243   6.076   2.083   6.181  0.0562  0.2984 -0.1746
18601SOL    HW157244   6.021   2.033   6.242  0.6697 -0.3378 -0.1343
18601SOL    HW257245   6.066   2.174   6.210  0.5631 -0.0172  1.0641
18602SOL     OW57246   4.749   1.606   0.928  0.0865  0.3738 -0.2267
18602SOL    HW157247   4.693   1.641   0.996 -1.4356  0.0916 -1.2872
18602SOL    HW257248   4.693   1.600   0.851  1.6228  0.2539 -1.3924
18603SOL     OW57249   7.815   0.477  10.003  0.8041  0.1315  0.0891
18603SOL    HW157250   7.750   0.432   9.948  0.2966  1.1960 -0.2053
18603SOL    HW257251   7.784   0.463  10.093  0.0357  0.8179 -0.0605
18604SOL     OW57252   4.920   4.320   7.266 -0.0433  0.1199 -0.2029
18604SOL    HW157253   4.931   4.227   7.249  1.0455  0.3682 -0.9662
18604SOL    HW257254   4.826   4.336   7.256 -0.4617 -1.1410  1.3571
18605SOL     OW57255   5.539   6.367   5.096 -0.1066 -0.1925  0.5471
18605SOL    HW157256   5.531   6.272   5.092 -1.3900 -0.1170  0.7104
18605SOL    HW257257   5.455   6.399   5.062  0.6796  0.9052 -0.4510
18606SOL     OW57258   7.512   0.181  10.315  0.5883 -0.1929 -0.0655
18606SOL    HW157259   7.512   0.144  10.227  1.0074  0.8215 -0.4981
18606SOL    HW257260   7.579   0.131  10.362  1.2879  0.1358 -0.7007
18607SOL     OW57261   3.736   7.780   5.428 -0.1946  0.0091 -0.3133
18607SOL    HW157262   3.651   7.824   5.428 -0.2408 -0.0336  0.9375
18607SOL    HW257263   3.730   7.716   5.499  0.1818 -1.4351 -1.5461
18608SOL     OW57264   5.540   7.405   7.869  0.0983 -0.5540  0.2182
18608SOL    HW157265   5.488   7.448   7.938 -0.3870  0.0815 -0.5267
18608SOL    HW257266   5.605   7.471   7.843 -0.1659 -0.5362 -0.4102
18609SOL     OW57267   6.169   1.725   2.219  0.0628 -0.6876 -0.7555
18609SOL    HW157268   6.130   1.754   2.136 -0.3653 -1.5301 -0.8621
18609SOL    HW257269   6.098   1.729   2.282 -0.4488 -2.9421 -1.1124
18610SOL     OW57270   2.910   0.100   7.782  0.8182  0.0610 -0.0823
18610SOL    HW157271   2.875   0.012   7.767  0.1645  0.2547  0.2439
18610SOL    HW257272   2.869   0.128   7.864  0.3987  0.9743 -0.5952
18611SOL     OW57273   4.300   3.298   1.034 -0.4934 -0.1036  0.0788
18611SOL    HW157274   4.384   3.325   1.072 -1.5435  0.1855  2.3399
18611SOL    HW257275   4.306   3.203   1.025  0.2157 -0.0396 -0.1876
18612SOL     OW57276   6.002   6.324   7.498  0.6697 -0.3424 -0.5688
18612SOL    HW157277   5.975   6.406   7.456 -1.0058 -1.6576 -2.2489
18612SOL    HW257278   5.927   6.265   7.487  1.7323 -2.0548  0.7687
18613SOL     OW57279   7.356   6.066   9.377 -0.3372 -0.7290  0.1629
18613SOL    HW157280   7.265   6.091   9.363 -0.8952 -1.9880  1.2629
18613SOL    HW257281   7.357   5.971   9.364  1.5275 -0.4090 -3.2030
18614SOL     OW57282   0.084   6.397   7.940 -0.0501 -0.1549 -0.2216
18614SOL    HW157283   0.088   6.302   7.952  0.2685 -0.2312 -0.8694
18614SOL    HW257284   0.045   6.430   8.021 -0.3240 -0.8502 -0.0628
18615SOL     OW57285   5.003   0.527   4.457  0.1926  0.7816 -0.0766
18615SOL    HW157286   5.060   0.598   4.488  0.3910  0.3281  0.6100
18615SOL    HW257287   5.035   0.508   4.368  2.3759 -0.7478  0.9649
18616SOL     OW57288   1.700   1.987   9.710  0.0390  0.1746 -0.4084
18616SOL    HW157289   1.787   1.988   9.670  0.1318 -0.6829 -0.2395
18616SOL    HW257290   1.646   1.937   9.650  0.0007 -0.4834  0.1567
18617SOL     OW57291   6.220   7.699   0.226  0.4878  0.0308 -0.1267
18617SOL    HW157292   6.204   7.691   0.132  1.1112  0.2963 -0.2659
18617SOL    HW257293   6.267   7.782   0.235  0.7896 -0.1875  0.3672
18618SOL     OW57294   4.239   0.026   1.965  0.0406 -0.4822 -0.1218
18618SOL    HW157295   4.321   0.033   1.917 -0.1410 -0.4245 -0.4263
18618SOL    HW257296   4.264  -0.007   2.051  0.4818  0.3372  0.0726
18619SOL     OW57297   0.420   7.364   5.545  0.3231  0.3182 -0.1278
18619SOL    HW157298   0.363   7.392   5.474  1.1631  1.8208 -0.2430
18619SOL    HW257299   0.485   7.306   5.504  1.1247  1.6001 -0.7101
18620SOL     OW57300   4.879   5.583   3.073 -0.3013 -0.3190  0.2719
18620SOL    HW157301   4.796   5.542   3.096 -0.6864  0.0476 -0.4167
18620SOL    HW257302   4.923   5.518   3.019 -0.1588 -0.4944  0.5976
18621SOL     OW57303   5.669   5.321   5.898 -0.8543  0.1396 -0.8271
18621SOL    HW157304   5.717   5.255   5.948  0.3677  0.6698 -1.2581
18621SOL    HW257305   5.637   5.274   5.821  0.3924  0.1133 -1.3600
18622SOL     OW57306   6.301   6.473   7.615 -0.0202 -0.4356  0.0613
18622SOL    HW157307   6.388   6.513   7.615  0.5033 -1.5351 -0.0609
18622SOL    HW257308   6.252   6.521   7.549  0.2181  0.7532  0.7245
18623SOL     OW57309   5.995   4.450   3.292 -0.2112 -0.3429 -0.0048
18623SOL    HW157310   5.923   4.492   3.339 -0.6906 -1.9487  0.7561
18623SOL    HW257311   6.063   4.437   3.358  2.4581  4.3727 -1.3462
18624SOL     OW57312   4.340   1.233   0.683 -0.4009  0.0694 -0.1314
18624SOL    HW157313   4.390   1.164   0.639 -1.0522 -0.6315  0.2291
18624SOL    HW257314   4.407   1.298   0.708  0.3886 -1.0359  0.6945
18625SOL     OW57315   5.229   5.501   3.087 -0.1588 -0.3237 -0.4193
18625SOL    HW157316   5.150   5.459   3.054  0.2346 -0.7302 -0.8463
18625SOL    HW257317   5.253   5.450   3.164  0.3055 -0.8769 -0.9236
18626SOL     OW57318   4.544   7.249  11.010  0.1422  0.1985 -0.0658
18626SOL    HW157319   4.555   7.295  10.927 -0.1444 -0.2707 -0.3754
18626SOL    HW257320   4.450   7.255  11.028  0.2744  0.7008  0.4674
18627SOL     OW57321   3.895   0.098   9.401  0.4505  0.2906 -0.8674
18627SOL    HW157322   3.870   0.030   9.338  1.3075 -0.1629 -0.7315
18627SOL    HW257323   3.985   0.119   9.378  1.0515 -0.4514  0.7090
18628SOL     OW57324   0.306   3.947   8.084  0.1936  0.0896  0.3447
18628SOL    HW157325   0.288   4.038   8.062 -0.7136 -0.7960 -3.2273
18628SOL    HW257326   0.225   3.901   8.066  0.2413 -1.3845  3.2425
18629SOL     OW57327   4.675   1.966   9.773  0.5111  0.1285  0.4055
18629SOL    HW157328   4.732   2.022   9.720 -0.2560 -1.3589 -2.1492
18629SOL    HW257329   4.588   1.981   9.738 -0.0999 -0.6773  1.5244
18630SOL     OW57330   1.040   3.294   8.121 -0.4749  0.0864 -0.6666
18630SOL    HW157331   1.006   3.207   8.140 -0.3021  0.1691  0.0443
18630SOL    HW257332   1.122   3.278   8.073 -0.3386 -0.1463 -0.3577
18631SOL     OW57333   1.339   4.233  10.254  0.4957 -0.1566 -0.5736
18631SOL    HW157334   1.244   4.238  10.245  0.5751 -1.5130 -3.0842
18631SOL    HW257335   1.354   4.152  10.301  0.4036 -0.9168 -1.8011
18632SOL     OW57336   2.186   5.083   1.681 -0.1879 -0.5011 -0.0304
18632SOL    HW157337   2.152   5.163   1.641 -0.2566 -0.3882  0.2519
18632SOL    HW257338   2.277   5.078   1.651 -0.4731 -0.8611 -0.8710
18633SOL     OW57339   3.491   2.082   3.700  0.1948 -0.0703  0.3771
18633SOL    HW157340   3.442   2.133   3.764 -0.5097 -0.2117 -0.0406
18633SOL    HW257341   3.564   2.045   3.749  1.5937  2.5198  0.3972
18634SOL     OW57342   6.640   2.242  10.976  0.2598 -0.5688 -0.0502
18634SOL    HW157343   6.560   2.191  10.992 -0.5110  0.2688 -1.0801
18634SOL    HW257344   6.663   2.221  10.885  1.2547 -0.8329  0.2508
18635SOL     OW57345   5.016   7.861   1.896 -0.3028  0.3620 -0.2580
18635SOL    HW157346   4.922   7.846   1.890  0.0638 -1.8443 -1.5040
18635SOL    HW257347   5.033   7.871   1.989 -1.6544 -0.0778  0.0611
18636SOL     OW57348   4.660   7.550   5.353  0.1630 -0.2831 -0.3748
18636SOL    HW157349   4.606   7.483   5.395  1.5491 -0.9496  0.4388
18636SOL    HW257350   4.750   7.519   5.366  0.7538  0.7283 -1.7559
18637SOL     OW57351   6.865   3.401   5.085 -0.1324 -0.0338 -0.2980
18637SOL    HW157352   6.776   3.367   5.081  0.5954 -1.9798 -1.0346
18637SOL    HW257353   6.866   3.471   5.019 -0.2216 -2.4277 -3.0285
18638SOL     OW57354   7.366   3.811   3.035 -0.4554  0.3413 -0.1540
18638SOL    HW157355   7.341   3.892   2.991 -0.5725  0.4680  0.1394
18638SOL    HW257356   7.364   3.834   3.129 -0.7367 -0.0676 -0.0589
18639SOL     OW57357   7.306   5.335   2.404  0.9786  0.1260  0.2957
18639SOL    HW157358   7.233   5.397   2.403  0.7418 -0.1546  0.1892
18639SOL    HW257359   7.341   5.337   2.315 -0.1565 -1.2154 -0.2311
18640SOL     OW57360   4.103   1.850   3.018 -0.0261 -0.0034 -0.3351
18640SOL    HW157361   4.054   1.781   2.973  1.6514 -0.9279 -0.8238
18640SOL    HW257362   4.158   1.804   3.081  0.0718  1.0180  0.3519
18641SOL     OW57363   3.126   2.228   9.139  0.1453  0.3249 -0.3393
18641SOL    HW157364   3.076   2.158   9.096  0.3206  0.9509 -1.6054
18641SOL    HW257365   3.134   2.296   9.073 -0.6683  1.8937  1.0887
18642SOL     OW57366   1.156   7.518   4.298  0.6803 -0.0929 -0.1229
18642SOL    HW157367   1.137   7.424   4.296  0.3819 -0.0371 -1.5780
18642SOL    HW257368   1.237   7.527   4.247 -1.3005  0.7596 -3.4599
18643SOL     OW57369   7.564   4.121   9.172  0.1983  0.1374  0.2691
18643SOL    HW157370   7.563   4.214   9.193 -1.4686  0.3831 -0.7092
18643SOL    HW257371   7.525   4.079   9.249  0.7286  0.2660  0.6101
18644SOL     OW57372   1.419   7.868   0.535 -0.2195 -0.7335  0.5917
18644SOL    HW157373   1.482   7.939   0.520  0.0736 -0.4745  2.7140
18644SOL    HW257374   1.361   7.902   0.603 -0.3562 -2.3373  1.3137
18645SOL     OW57375   3.470   4.384   0.034 -0.1052 -0.4056 -0.3541
18645SOL    HW157376   3.563   4.394   0.013  0.5381 -0.9515  2.0263
18645SOL    HW257377   3.428   4.455  -0.014  2.1163  2.7632  1.9495
18646SOL     OW57378   2.147   4.746   9.620 -0.2182  0.0451 -0.3745
18646SOL    HW157379   2.202   4.669   9.632 -0.2652  0.0177 -0.3372
18646SOL    HW257380   2.140   4.785   9.708 -2.1887 -1.2398  0.0848
18647SOL     OW57381   5.935   0.615  11.872  0.0514  0.1155  0.1954
18647SOL    HW157382   6.019   0.642  11.910  0.4611  0.8197 -1.1513
18647SOL    HW257383   5.954   0.533  11.827 -0.3837 -0.5999  1.2709
18648SOL     OW57384   6.882   3.319  12.310  0.3020  0.2284  0.2356
18648SOL    HW157385   6.976   3.302  12.310  0.2488 -0.1231 -0.5190
18648SOL    HW257386   6.871   3.393  12.250 -0.0519 -0.7140 -0.8884
18649SOL     OW57387   0.637   6.587   1.341  0.5036 -0.2783 -0.6109
18649SOL    HW157388   0.732   6.594   1.347  0.5901 -1.9106  1.1309
18649SOL    HW257389   0.606   6.612   1.428 -0.6077 -0.5219 -0.9199
18650SOL     OW57390   5.404   4.725  12.327  0.0711  0.2835 -0.4271
18650SOL    HW157391   5.476   4.667  12.353  0.4689  0.9348 -0.0664
18650SOL    HW257392   5.433   4.813  12.351 -1.2139  0.4698  0.6031
18651SOL     OW57393   6.455   0.797   9.125 -0.7955  0.2766 -0.5096
18651SOL    HW157394   6.539   0.833   9.099 -1.4975  1.9487 -0.5788
18651SOL    HW257395   6.464   0.702   9.111  1.7911  0.1022  1.5369
18652SOL     OW57396   3.483   6.800   8.595  0.1301 -0.1901  0.1114
18652SOL    HW157397   3.558   6.776   8.649 -0.2299  1.1766  1.2886
18652SOL    HW257398   3.514   6.871   8.540  0.7604 -2.1739 -2.2519
18653SOL     OW57399   0.694   5.297   0.462  0.5933  0.0512 -0.2187
18653SOL    HW157400   0.677   5.316   0.370  1.3823  1.3767 -0.1088
18653SOL    HW257401   0.764   5.357   0.487  2.8156 -2.5900  0.3707
18654SOL     OW57402   2.425   2.309  10.949 -0.1592 -0.0513 -0.3380
18654SOL    HW157403   2.405   2.389  10.900  1.6198  0.3156 -0.5352
18654SOL    HW257404   2.464   2.250  10.884 -2.4821 -1.5936 -0.4707
18655SOL     OW57405   1.033   0.582   7.835  0.2842  0.2182 -0.2266
18655SOL    HW157406   0.959   0.526   7.859 -0.0155  0.2055 -1.1695
18655SOL    HW257407   1.104   0.522   7.818  0.3491  0.2013  0.0910
18656SOL     OW57408   1.384   4.557   6.754  1.0313  0.0193 -0.2958
18656SOL    HW157409   1.344   4.644   6.766 -2.4291 -1.6285  1.5424
18656SOL    HW257410   1.339   4.520   6.679 -1.1461 -1.8729  1.7918
18657SOL     OW57411   0.202   0.386   1.495  0.0257 -0.1559 -0.2022
18657SOL    HW157412   0.219   0.460   1.553 -0.2950  0.3940 -0.8035
18657SOL    HW257413   0.115   0.356   1.520 -0.2292  0.2589 -0.5867
18658SOL     OW57414   5.050   7.094   5.917 -0.1488 -0.1163  0.0503
18658SOL    HW157415   5.087   7.139   5.993 -0.4607  1.8438 -0.9016
18658SOL    HW257416   4.955   7.093   5.933 -0.2798  0.9113 -0.6037
18659SOL     OW57417   0.734   4.729   5.978 -0.2398  0.2632 -0.2200
18659SOL    HW157418   0.729   4.634   5.993 -0.6403  0.3714  0.3465
18659SOL    HW257419   0.771   4.764   6.058 -2.1859  0.8254  0.4940
18660SOL     OW57420   5.903   5.603   4.361 -0.1718 -0.2128  0.2052
18660SOL    HW157421   5.896   5.574   4.452 -1.0729 -0.9735 -0.0907
18660SOL    HW257422   5.986   5.566   4.331 -0.1049 -0.3640  0.5699
18661SOL     OW57423   6.895   4.196  11.617  0.6055  0.5476  0.6822
18661SOL    HW157424   6.936   4.139  11.683  0.1058  0.4271  0.8929
18661SOL    HW257425   6.926   4.162  11.533  0.4934  0.1063  0.8164
18662SOL     OW57426   3.395   2.840   5.578  0.1632 -0.1599 -0.0297
18662SOL    HW157427   3.337   2.911   5.548  0.1757 -0.5303 -0.9714
18662SOL    HW257428   3.483   2.874   5.562  0.2238  0.3249  1.2199
18663SOL     OW57429   0.364   2.574   1.523 -0.0035  0.3272  0.8314
18663SOL    HW157430   0.388   2.570   1.615  1.2181 -1.0196  0.5023
18663SOL    HW257431   0.354   2.482   1.496  1.0236  0.6124 -0.6759
18664SOL     OW57432   7.925   1.552   6.363 -0.4562  0.3356 -0.7502
18664SOL    HW157433   7.960   1.583   6.447 -0.7147  2.2703 -1.2968
18664SOL    HW257434   7.978   1.476   6.341 -0.5758 -0.3992  1.2878
18665SOL     OW57435   1.498   4.437   3.849  0.5404  0.3919 -0.3752
18665SOL    HW157436   1.512   4.518   3.897  1.0874  0.7663 -1.1398
18665SOL    HW257437   1.570   4.380   3.876 -1.9200 -1.4107  3.2146
18666SOL     OW57438   7.876   6.626   5.599 -0.3865  0.5509 -0.3155
18666SOL    HW157439   7.810   6.574   5.553  0.3536 -0.7179 -0.0019
18666SOL    HW257440   7.851   6.717   5.583 -2.8267  0.1422  0.6645
18667SOL     OW57441   7.511   3.267   5.040  0.0858  0.2148  0.1678
18667SOL    HW157442   7.518   3.271   4.945  1.0139  0.5175  0.2355
18667SOL    HW257443   7.491   3.357   5.066 -0.8782 -0.0077  0.2145
18668SOL     OW57444   6.757   7.765  10.829  0.1444  0.3597 -0.0208
18668SOL    HW157445   6.717   7.850  10.808  0.8887  0.9268  0.7829
18668SOL    HW257446   6.842   7.788  10.867  0.6793 -0.7813 -0.5030
18669SOL     OW57447   6.526   3.456   5.536  0.1819 -0.1641 -0.2642
18669SOL    HW157448   6.606   3.427   5.492  0.4982  0.2357  0.0412
18669SOL    HW257449   6.517   3.548   5.510 -0.9624 -0.5668 -1.4523
18670SOL     OW57450   0.872   6.780   1.950  0.3211  0.3664 -0.1579
18670SOL    HW157451   0.961   6.744   1.950  0.0596 -0.3716  1.6084
18670SOL    HW257452   0.883   6.870   1.981  0.4972  0.4348 -0.4121
18671SOL     OW57453   2.625   3.867   5.324 -0.2279  0.2897 -0.0109
18671SOL    HW157454   2.634   3.805   5.251  2.7797 -0.7911  1.1256
18671SOL    HW257455   2.561   3.825   5.382 -1.2987  0.2922 -1.1455
18672SOL     OW57456   5.734   3.891  12.213 -0.7502  0.2481 -0.2020
18672SOL    HW157457   5.808   3.876  12.272  0.1504  3.3035 -0.3799
18672SOL    HW257458   5.657   3.891  12.270 -0.1267  1.0704  0.6611
18673SOL     OW57459   5.155   1.628  10.501  0.3835  0.2470 -0.0785
18673SOL    HW157460   5.179   1.717  10.525  0.2870  0.2247  0.1066
18673SOL    HW257461   5.076   1.637  10.447  1.4601  0.3989 -1.6797
18674SOL     OW57462   1.856   0.697   1.456 -0.2037 -0.1650  0.0149
18674SOL    HW157463   1.875   0.791   1.460  0.0730 -0.2248  0.0998
18674SOL    HW257464   1.917   0.662   1.392  0.2154 -0.4160  0.5467
18675SOL     OW57465   6.261   5.742   1.865 -0.0942 -0.2162 -0.4175
18675SOL    HW157466   6.352   5.745   1.893 -0.3593 -1.7890  0.7359
18675SOL    HW257467   6.213   5.790   1.933  0.0450  2.7422 -2.2186
18676SOL     OW57468   1.106   2.001   0.531 -0.3979  0.2272  0.1743
18676SOL    HW157469   1.121   1.972   0.621 -2.2867  1.7278  1.0310
18676SOL    HW257470   1.072   1.923   0.487 -0.9574 -0.1265  1.1949
18677SOL     OW57471   0.379   0.840   7.530  0.4759 -0.3568  0.0079
18677SOL    HW157472   0.338   0.816   7.613 -0.7966 -2.3959 -1.1272
18677SOL    HW257473   0.401   0.933   7.540 -2.2954  0.2314  1.5769
18678SOL     OW57474   2.845   0.143   9.923 -0.2376 -0.3525 -0.6008
18678SOL    HW157475   2.787   0.092   9.866 -2.1166 -0.6516  1.3959
18678SOL    HW257476   2.914   0.082   9.947  0.2952 -0.3731 -2.1022
18679SOL     OW57477   6.256   3.928   4.738  0.2208  0.7138  0.3734
18679SOL    HW157478   6.256   3.995   4.806  0.0412  0.5246  0.5628
18679SOL    HW257479   6.202   3.857   4.775  0.5146  0.4145  0.2310
18680SOL     OW57480   7.427   4.536   6.481 -0.3764 -0.3168 -0.0935
18680SOL    HW157481   7.472   4.590   6.546  0.4892  0.1055 -1.0368
18680SOL    HW257482   7.422   4.590   6.403 -1.2233 -0.9030 -0.4605
18681SOL     OW57483   5.934   1.464   8.852  0.0772 -0.8413  0.0540
18681SOL    HW157484   5.964   1.451   8.942 -1.9508 -0.8273  0.7707
18681SOL    HW257485   6.009   1.438   8.799  1.1702 -1.2990  1.7232
18682SOL     OW57486   1.960   7.140   6.559 -0.3654  0.4973  0.2631
18682SOL    HW157487   1.878   7.190   6.555  0.2801  1.5711 -0.0578
18682SOL    HW257488   2.019   7.185   6.498  0.3837 -0.4135  0.2898
18683SOL     OW57489   3.619   1.694   3.858 -0.0323 -0.2036 -0.3024
18683SOL    HW157490   3.607   1.767   3.797 -1.8520 -0.5842 -0.4637
18683SOL    HW257491   3.670   1.630   3.809 -0.9794 -0.2628 -1.2367
18684SOL     OW57492   2.569   3.008   0.710  0.3445 -0.5839  0.3049
18684SOL    HW157493   2.651   3.005   0.660  0.6307 -1.7356  0.8014
18684SOL    HW257494   2.581   2.942   0.778  0.0023  0.9661  1.9397
18685SOL     OW57495   6.116   0.058   2.785  0.0335  0.4883  0.6051
18685SOL    HW157496   6.053   0.129   2.773  0.1698  0.9314  2.1765
18685SOL    HW257497   6.201   0.098   2.765  0.3455  1.4339  3.3577
18686SOL     OW57498   2.724   4.590   3.698  0.1345 -0.0725 -0.2603
18686SOL    HW157499   2.639   4.580   3.655 -0.7498  1.7434  0.9433
18686SOL    HW257500   2.724   4.524   3.768 -0.9711  0.8860  0.6865
18687SOL     OW57501   0.536   3.301   2.783  0.3523  0.1076 -0.2495
18687SOL    HW157502   0.498   3.225   2.826 -0.0308  0.1796 -0.4557
18687SOL    HW257503   0.622   3.272   2.753  0.0326 -0.3646 -0.7013
18688SOL     OW57504   7.009   3.998   0.359 -0.2398  0.5991 -0.1367
18688SOL    HW157505   7.085   4.018   0.413 -0.5486  0.6406  0.2869
18688SOL    HW257506   6.939   4.052   0.394 -0.8272 -0.4829  0.4012
18689SOL     OW57507   5.252   6.791   1.975  0.1963  0.4737  0.6308
18689SOL    HW157508   5.276   6.835   2.057  0.8411  0.7935  0.2814
18689SOL    HW257509   5.332   6.748   1.947 -0.0357  0.3270  0.1877
18690SOL     OW57510   5.436   0.809   7.788 -0.3398 -0.1531 -0.4968
18690SOL    HW157511   5.515   0.861   7.800  0.3114 -1.2526  0.1559
18690SOL    HW257512   5.383   0.859   7.726  1.2424  0.1875 -1.6382
18691SOL     OW57513   4.072   1.912   9.548 -0.1485  0.1234  0.1125
18691SOL    HW157514   4.146   1.971   9.536 -0.7017  1.0163  0.9346
18691SOL    HW257515   4.112   1.826   9.560  0.8490  0.7880  1.8742
18692SOL     OW57516   0.906   4.135  12.303  0.0945  0.3850 -0.0010
18692SOL    HW157517   0.909   4.055  12.250 -1.1657  0.5937 -0.4308
18692SOL    HW257518   0.980   4.187  12.273  1.0018 -0.6545  0.3630
18693SOL     OW57519   2.542   4.747   6.374  0.4399  0.7325  0.1212
18693SOL    HW157520   2.562   4.816   6.311  1.1736  0.3622 -0.0644
18693SOL    HW257521   2.490   4.684   6.324  0.3948  0.7927  0.0916
18694SOL     OW57522   3.058   0.521   4.063  0.0222 -0.0998  0.3090
18694SOL    HW157523   3.091   0.524   3.974  1.7433 -0.6918  0.8823
18694SOL    HW257524   3.003   0.443   4.066  1.1139 -0.8951  0.1196
18695SOL     OW57525   0.629   7.357   8.209  0.4683  0.0973  0.3567
18695SOL    HW157526   0.590   7.269   8.212 -0.7644  0.6627  1.6013
18695SOL    HW257527   0.610   7.388   8.120  0.0200 -0.4939  0.2357
18696SOL     OW57528   1.822   6.593   3.883 -0.1655  0.1383  0.1973
18696SOL    HW157529   1.771   6.551   3.952  0.0162 -0.6705 -0.1466
18696SOL    HW257530   1.870   6.521   3.841  0.1365  0.6854 -0.4242
18697SOL     OW57531   6.572   6.822   2.179 -0.2755  0.0748 -0.0739
18697SOL    HW157532   6.555   6.729   2.164 -2.3466  0.3325  0.4113
18697SOL    HW257533   6.518   6.867   2.115  0.0629  0.9658  0.2528
18698SOL     OW57534   1.985   1.998  11.391 -0.3334 -0.2530 -0.3903
18698SOL    HW157535   1.912   1.936  11.398 -0.8891  0.4530  0.1835
18698SOL    HW257536   1.993   2.036  11.478 -0.1118  0.6207 -0.7835
18699SOL     OW57537   2.053   5.901   3.566 -0.1164  0.8244  0.4938
18699SOL    HW157538   1.969   5.864   3.594 -0.5948  0.3747 -1.4268
18699SOL    HW257539   2.114   5.827   3.570  0.2000  1.1292  1.7955
18700SOL     OW57540   7.916   4.875   1.549 -0.1122  0.2938 -0.0635
18700SOL    HW157541   7.895   4.892   1.458 -1.3841  1.2141  0.3721
18700SOL    HW257542   7.975   4.946   1.574  0.8633 -0.3854 -0.3487
18701SOL     OW57543   0.079   1.022   8.588 -0.2793 -0.1094 -0.0702
18701SOL    HW157544   0.050   0.937   8.621  0.9705 -0.4284  0.2434
18701SOL    HW257545   0.049   1.023   8.497  1.3234 -1.7236 -0.6768
18702SOL     OW57546   1.049   3.560  11.362  0.3543  0.0200  0.1570
18702SOL    HW157547   1.066   3.653  11.376  1.2358  0.0952 -1.2464
18702SOL    HW257548   1.123   3.530  11.309  0.2134 -1.5451  0.7862
18703SOL     OW57549   6.089   2.669   0.309  0.1001  0.2047 -0.6367
18703SOL    HW157550   5.999   2.672   0.277  0.3703 -2.1006 -1.8720
18703SOL    HW257551   6.082   2.624   0.393  0.2202 -1.8492 -1.6585
18704SOL     OW57552   0.407   7.083   4.650  0.1307  0.1525  0.0723
18704SOL    HW157553   0.370   7.159   4.694 -0.0699  0.6719 -0.9720
18704SOL    HW257554   0.409   7.015   4.717  0.0334  0.9858  0.9341
18705SOL     OW57555   6.279   0.746   0.356 -0.9645  0.1002 -0.0233
18705SOL    HW157556   6.192   0.721   0.386 -0.8134 -0.4492 -0.0381
18705SOL    HW257557   6.338   0.682   0.396 -0.6112  0.2189 -0.3441
18706SOL     OW57558   4.403   7.215   3.212  0.0396 -0.0683 -0.5987
18706SOL    HW157559   4.365   7.161   3.142  0.5143  3.1853 -3.6688
18706SOL    HW257560   4.328   7.257   3.253 -0.1790 -1.3186  0.3632
18707SOL     OW57561   1.590   4.611   1.877  0.0422 -0.0819  0.5039
18707SOL    HW157562   1.499   4.584   1.886  0.4154 -1.4237  0.5035
18707SOL    HW257563   1.614   4.647   1.962  0.1065 -1.7203  1.2258
18708SOL     OW57564   0.816   0.434   1.582 -0.2842 -0.5161  0.1170
18708SOL    HW157565   0.757   0.402   1.650 -0.8747  1.2219  0.4739
18708SOL    HW257566   0.763   0.432   1.502  0.3790 -2.4649 -0.3240
18709SOL     OW57567   6.348   7.556  12.164  0.0041  0.1418 -0.0332
18709SOL    HW157568   6.384   7.617  12.100 -0.5249  0.7940  0.2755
18709SOL    HW257569   6.380   7.587  12.248  2.5236 -1.9982 -0.0991
18710SOL     OW57570   2.256   2.916   0.181 -0.2999  0.0508 -0.2769
18710SOL    HW157571   2.309   2.840   0.158  0.4255  0.7005 -0.8308
18710SOL    HW257572   2.318   2.989   0.179 -0.7625  0.5227  1.2219
18711SOL     OW57573   4.659   1.396  11.569  0.4665  0.4862 -0.0887
18711SOL    HW157574   4.602   1.381  11.493  0.0195  0.3807  0.2680
18711SOL    HW257575   4.717   1.467  11.541 -0.6644  1.4642 -0.0069
18712SOL     OW57576   7.147   0.305   8.869  0.3498 -0.2355 -0.1421
18712SOL    HW157577   7.168   0.395   8.846  2.4364 -0.4427  0.7192
18712SOL    HW257578   7.147   0.304   8.964  1.1547 -1.2835 -0.1336
18713SOL     OW57579   6.985   6.460  11.933 -0.0042  0.3150 -0.0502
18713SOL    HW157580   6.990   6.520  11.858  0.9209 -0.3534 -0.5387
18713SOL    HW257581   7.063   6.405  11.925  1.0605  1.3522  2.3931
18714SOL     OW57582   3.909   2.222  11.172  0.3684  0.4265  0.0203
18714SOL    HW157583   3.918   2.314  11.144  0.3987  0.8871  1.4589
18714SOL    HW257584   3.817   2.215  11.200  0.1904 -0.1704 -0.7023
18715SOL     OW57585   3.973   3.906  11.998  0.6873 -0.6867  0.0901
18715SOL    HW157586   3.993   3.917  12.091 -0.8573  0.6131  0.3141
18715SOL    HW257587   3.914   3.978  11.977  0.7405 -1.1316 -1.8423
18716SOL     OW57588   0.315   2.217   8.843 -0.0187 -0.6634 -0.1702
18716SOL    HW157589   0.380   2.284   8.821 -1.2056  0.2220 -1.1379
18716SOL    HW257590   0.363   2.152   8.895  2.0426 -0.9273 -2.2654
18717SOL     OW57591   6.832   5.258   6.503  0.0399  0.5851  0.4334
18717SOL    HW157592   6.821   5.246   6.409 -2.0688 -0.6610  0.7881
18717SOL    HW257593   6.908   5.204   6.525  1.1362  1.6196 -0.6499
18718SOL     OW57594   2.910   6.893   9.789  0.1287 -0.0767 -0.0549
18718SOL    HW157595   2.959   6.970   9.759  0.1773 -0.5444 -1.2008
18718SOL    HW257596   2.977   6.825   9.801 -0.0563 -0.2785 -0.1695
18719SOL     OW57597   5.742   0.731   4.408  0.7132 -0.1420 -0.2488
18719SOL    HW157598   5.795   0.810   4.416 -0.5913  1.1266 -2.8357
18719SOL    HW257599   5.734   0.717   4.313  0.1819 -2.9039  0.1193
18720SOL     OW57600   4.396   4.640   8.916  0.1852  0.1820 -0.2282
18720SOL    HW157601   4.419   4.730   8.938 -0.7979  0.5297 -0.5553
18720SOL    HW257602   4.457   4.586   8.966  2.2729  1.0368 -1.6763
18721SOL     OW57603   0.296   1.520   2.591  0.0122 -0.4470 -0.1380
18721SOL    HW157604   0.246   1.600   2.608  0.9657 -0.0610  0.9738
18721SOL    HW257605   0.287   1.468   2.671  1.9916 -0.0147  0.4201
18722SOL     OW57606   1.180   6.185   4.541  0.0081 -0.1089 -0.0548
18722SOL    HW157607   1.123   6.261   4.526  0.1631  0.0173 -0.0047
18722SOL    HW257608   1.174   6.168   4.635 -0.0179 -0.1526 -0.0640
18723SOL     OW57609   4.506   2.231  10.113  0.4902  0.3861  0.4726
18723SOL    HW157610   4.590   2.263  10.082  0.4226 -1.3056 -1.7105
18723SOL    HW257611   4.447   2.242  10.038 -0.1800 -2.1889  0.5112
18724SOL     OW57612   2.558   0.883   2.846  0.0242  0.2087 -0.5453
18724SOL    HW157613   2.484   0.829   2.816 -1.0117 -0.4821  2.8320
18724SOL    HW257614   2.543   0.968   2.805 -0.7261 -0.8100 -2.5743
18725SOL     OW57615   2.547   4.192   0.240 -0.0496 -0.5238 -0.5572
18725SOL    HW157616   2.598   4.115   0.214 -0.5277 -0.1129 -3.0607
18725SOL    HW257617   2.459   4.175   0.205  0.5313  2.3271 -4.1204
18726SOL     OW57618   3.807   6.825   1.477 -1.0513  0.0495  0.8020
18726SOL    HW157619   3.857   6.893   1.521 -1.4391  0.3310  0.8134
18726SOL    HW257620   3.801   6.754   1.542  1.1786 -0.8942  0.0502
18727SOL     OW57621   1.344   6.430   8.404 -0.1615  0.1763  0.0535
18727SOL    HW157622   1.376   6.499   8.345 -0.3715 -0.0020 -0.2743
18727SOL    HW257623   1.404   6.356   8.388 -2.1340 -1.0620 -2.4340
18728SOL     OW57624   0.664   1.569   6.356 -0.2598 -0.6172 -0.2925
18728SOL    HW157625   0.683   1.550   6.448 -0.7829  0.2259  0.0081
18728SOL    HW257626   0.685   1.489   6.310  1.6410 -0.5264  0.3372
18729SOL     OW57627   3.166   5.787   6.473 -0.0326 -0.2347  0.3122
18729SOL    HW157628   3.115   5.867   6.476 -0.1959 -0.2819 -0.7921
18729SOL    HW257629   3.223   5.798   6.397 -0.5916 -1.4639 -0.3141
18730SOL     OW57630   7.427   1.046   6.277 -0.2444  0.0552 -0.1673
18730SOL    HW157631   7.463   1.025   6.191 -0.9058 -1.3743 -0.1138
18730SOL    HW257632   7.486   1.113   6.311  1.8014 -1.4642 -0.4981
18731SOL     OW57633   1.487   6.347   1.276  0.3761  0.0028 -0.5914
18731SOL    HW157634   1.450   6.410   1.214 -0.1126 -0.3914 -0.7072
18731SOL    HW257635   1.578   6.375   1.287  0.0054  1.0848 -0.1737
18732SOL     OW57636   4.800   4.695   2.466  0.6186  0.7923 -0.1635
18732SOL    HW157637   4.894   4.678   2.457  0.8096  0.9523  1.2877
18732SOL    HW257638   4.765   4.613   2.501 -0.3517 -0.3857 -3.4828
18733SOL     OW57639   3.696   7.689   7.799 -0.2505 -0.1331  0.6377
18733SOL    HW157640   3.682   7.627   7.728 -1.2334  1.0690 -0.2691
18733SOL    HW257641   3.732   7.767   7.756 -1.0151  0.6765  1.4168
18734SOL     OW57642   5.699   7.136   8.511  0.3444 -0.1104 -0.0543
18734SOL    HW157643   5.686   7.193   8.587  1.2678 -0.8519  0.6899
18734SOL    HW257644   5.615   7.090   8.501  0.1093  0.2335  0.3148
18735SOL     OW57645   2.727   0.240   2.801  1.0982 -0.2407  0.4438
18735SOL    HW157646   2.785   0.304   2.761  0.2601  0.2091 -0.0761
18735SOL    HW257647   2.746   0.158   2.754  0.6108  0.1275 -0.4090
18736SOL     OW57648   0.982   4.027   9.593 -0.0774 -0.0658 -0.0176
18736SOL    HW157649   0.896   4.012   9.632  0.1450 -1.7901 -0.1404
18736SOL    HW257650   1.011   4.111   9.630 -0.5442 -0.8652  2.3137
18737SOL     OW57651   1.503   0.128   9.916  0.3452  0.1911  0.1320
18737SOL    HW157652   1.486   0.194   9.984  0.8760 -3.3420  4.0596
18737SOL    HW257653   1.426   0.072   9.918  0.6997 -0.4500 -1.8228
18738SOL     OW57654   4.572   4.153  12.036  0.4673 -0.0446  0.2279
18738SOL    HW157655   4.542   4.243  12.022 -1.2404 -0.9058 -2.4017
18738SOL    HW257656   4.667   4.157  12.026  0.5502  1.6342  1.4113
18739SOL     OW57657   7.761   3.168   2.514 -0.3073 -0.4443  0.6207
18739SOL    HW157658   7.790   3.157   2.604 -1.0831 -0.1922  0.9052
18739SOL    HW257659   7.794   3.090   2.468 -0.4632 -0.8933  1.2605
18740SOL     OW57660   3.077   0.223  12.120 -0.3446  0.1842 -0.7000
18740SOL    HW157661   3.022   0.154  12.156 -0.2150  0.1221 -0.6214
18740SOL    HW257662   3.121   0.183  12.045  0.6979 -0.2015  0.0913
18741SOL     OW57663   6.317   3.410   1.738  0.6846  0.4615  0.1694
18741SOL    HW157664   6.238   3.421   1.686  1.7073 -1.9088 -2.0564
18741SOL    HW257665   6.287   3.364   1.817  0.0425 -2.4962 -1.6567
18742SOL     OW57666   2.201   6.308   6.537 -0.0895  0.2459  0.7332
18742SOL    HW157667   2.182   6.275   6.449  2.9586  1.5994 -0.6004
18742SOL    HW257668   2.182   6.402   6.532 -1.1464  0.1286  1.9900
18743SOL     OW57669   1.215   1.027  11.487  0.0026 -0.1228  0.3214
18743SOL    HW157670   1.264   0.965  11.433  1.4444 -0.7113  2.2116
18743SOL    HW257671   1.259   1.111  11.474 -1.4880  0.4235 -1.6512
18744SOL     OW57672   5.937   0.813  12.136  0.3049  0.6227  0.0479
18744SOL    HW157673   5.947   0.879  12.206 -1.1574  0.0394  0.8546
18744SOL    HW257674   6.021   0.813  12.091  1.8470  0.0537  2.6899
18745SOL     OW57675   1.915   5.368   5.441 -0.6371  0.0545 -0.1293
18745SOL    HW157676   1.958   5.449   5.415 -2.2157  1.4710  1.4457
18745SOL    HW257677   1.940   5.355   5.532  1.5773 -2.6488 -0.9873
18746SOL     OW57678   3.573   5.650  11.957 -0.2515 -0.0899 -0.1274
18746SOL    HW157679   3.523   5.719  11.913  2.4549  0.4742 -2.6110
18746SOL    HW257680   3.512   5.576  11.962 -2.0449  1.2571 -0.8646
18747SOL     OW57681   6.163   0.206   4.914  0.0993 -0.5233  0.3298
18747SOL    HW157682   6.236   0.225   4.855 -0.0508  0.3512  0.4206
18747SOL    HW257683   6.157   0.110   4.913  1.9913 -0.6944  1.2339
18748SOL     OW57684   4.722   0.628   0.444 -0.0345 -0.5802  0.4418
18748SOL    HW157685   4.672   0.559   0.489 -0.8807 -0.4850 -0.3335
18748SOL    HW257686   4.660   0.700   0.435  0.1631 -0.5468 -0.7477
18749SOL     OW57687   6.471   3.855  12.006 -0.3674  0.4130 -0.6150
18749SOL    HW157688   6.411   3.797  11.958  0.0510 -0.4936 -0.0698
18749SOL    HW257689   6.542   3.872  11.944 -0.8158  0.9101 -1.0108
18750SOL     OW57690   1.704   5.719  10.733 -0.5511 -0.2930 -0.5512
18750SOL    HW157691   1.620   5.707  10.779 -0.5758  0.9228 -0.2422
18750SOL    HW257692   1.681   5.773  10.657  0.3363  2.6791  1.1104
18751SOL     OW57693   2.187   5.499   6.193  0.2588  0.1157 -0.5168
18751SOL    HW157694   2.129   5.430   6.162 -0.8404  0.2351  1.1278
18751SOL    HW257695   2.128   5.571   6.216  1.1237  0.5407  0.4457
18752SOL     OW57696   2.466   6.134   2.982  0.1161  0.6190 -0.2121
18752SOL    HW157697   2.453   6.166   2.893  0.8919  1.0527 -0.1739
18752SOL    HW257698   2.405   6.061   2.990 -0.6843  1.2073 -0.7618
18753SOL     OW57699   1.108   5.395  10.555  0.1182  0.1512  0.1457
18753SOL    HW157700   1.124   5.489  10.564 -0.7698  0.2936  0.3787
18753SOL    HW257701   1.062   5.371  10.635  0.2579 -0.4710  0.0460
18754SOL     OW57702   5.865   3.015   8.451 -0.8268  0.0056  0.6004
18754SOL    HW157703   5.903   3.101   8.438 -2.4964  0.5435 -1.2257
18754SOL    HW257704   5.922   2.955   8.403 -2.1873  0.8186 -2.2342
18755SOL     OW57705   7.933   6.198   1.390 -0.2227 -0.2322  0.8293
18755SOL    HW157706   7.905   6.225   1.477 -0.9696 -0.7336  0.7455
18755SOL    HW257707   7.997   6.128   1.406 -0.1505 -0.1305  0.9827
18756SOL     OW57708   1.865   5.527   8.841  0.0443 -0.3351 -0.2497
18756SOL    HW157709   1.791   5.541   8.900  0.3811 -0.9150  0.3162
18756SOL    HW257710   1.896   5.616   8.821 -1.0444 -0.0617 -0.8256
18757SOL     OW57711   3.514   0.103  11.900  0.0605  0.1547 -0.3145
18757SOL    HW157712   3.606   0.080  11.893 -0.3484 -1.3525 -1.2607
18757SOL    HW257713   3.487   0.122  11.810 -0.3804  1.3318  0.0547
18758SOL     OW57714   4.879   6.035   2.234 -0.5555  0.0572  0.1871
18758SOL    HW157715   4.847   6.076   2.315 -0.9511  0.6629 -0.2676
18758SOL    HW257716   4.835   6.083   2.164  0.7551  0.3784 -0.4338
18759SOL     OW57717   2.840   6.214  11.167  0.2235 -0.4521  0.4028
18759SOL    HW157718   2.827   6.299  11.125 -0.3836  0.1004  1.6307
18759SOL    HW257719   2.761   6.165  11.146  1.2964 -1.3769 -1.7135
18760SOL     OW57720   6.275   0.083   3.624  0.6621  0.1983  0.3263
18760SOL    HW157721   6.346   0.147   3.622 -1.3361  2.6381  1.5786
18760SOL    HW257722   6.282   0.042   3.711  0.2084  0.8987  0.7045
18761SOL     OW57723   3.495   4.996  11.652  0.2662 -0.5359 -0.0589
18761SOL    HW157724   3.539   5.058  11.711 -0.3983 -0.8255  0.7489
18761SOL    HW257725   3.508   5.034  11.565 -0.1484  0.7579  0.4196
18762SOL     OW57726   7.850   4.351   0.234 -0.3505  0.0800 -0.0094
18762SOL    HW157727   7.945   4.356   0.243 -0.5255  0.6830  2.1115
18762SOL    HW257728   7.826   4.427   0.181  0.5376 -1.8212 -3.4766
18763SOL     OW57729   7.432   2.059   0.202 -0.3317 -0.0572  0.4262
18763SOL    HW157730   7.500   2.023   0.145 -0.2750  0.7117 -0.0028
18763SOL    HW257731   7.398   1.984   0.249 -0.1062 -0.6439 -0.3350
18764SOL     OW57732   7.844   0.696   7.003  0.0867  0.2032  0.0537
18764SOL    HW157733   7.828   0.764   7.070 -1.4014  0.6238 -0.6779
18764SOL    HW257734   7.886   0.743   6.931  1.4287 -0.1968  0.5366
18765SOL     OW57735   4.638   4.294   3.831  0.1910 -0.0449 -0.1290
18765SOL    HW157736   4.674   4.321   3.916 -1.2747  0.7489  0.2655
18765SOL    HW257737   4.633   4.199   3.837  0.0244  0.0043  0.7284
18766SOL     OW57738   2.355   5.056  10.973  0.2810  0.0347  0.4563
18766SOL    HW157739   2.422   5.114  11.010  1.9789 -0.7266 -1.3080
18766SOL    HW257740   2.402   4.977  10.948 -1.4510 -0.8915 -0.0431
18767SOL     OW57741   7.891   7.179  11.236 -0.0062 -0.3372 -0.2582
18767SOL    HW157742   7.952   7.252  11.246  0.1335 -0.4315 -0.4233
18767SOL    HW257743   7.843   7.177  11.319 -0.5928  0.4694 -0.5585
18768SOL     OW57744   7.080   7.032   6.368  0.1108 -0.7127 -0.3837
18768SOL    HW157745   6.987   7.013   6.357  0.4118 -1.4068 -1.9950
18768SOL    HW257746   7.099   7.100   6.303  0.4993  0.3338  0.7733
18769SOL     OW57747   0.217   6.820   0.615 -0.2165  0.3584 -0.1698
18769SOL    HW157748   0.183   6.896   0.662  2.1846 -0.6118  3.5366
18769SOL    HW257749   0.286   6.856   0.559 -0.7490  1.1529 -0.3386
18770SOL     OW57750   0.715   0.407  10.243 -0.1253  0.2045  0.7332
18770SOL    HW157751   0.697   0.313  10.238 -1.7006  0.3816  2.0796
18770SOL    HW257752   0.667   0.436  10.321  2.0726  1.7548  1.5992
18771SOL     OW57753   6.952   3.514   2.393 -0.2518  0.2684 -0.1694
18771SOL    HW157754   6.905   3.498   2.475  0.3849  0.3172  0.2157
18771SOL    HW257755   6.983   3.427   2.366 -0.3325  0.2734 -0.2774
18772SOL     OW57756   0.759   2.179   0.673 -0.1710  0.4062 -0.4686
18772SOL    HW157757   0.844   2.210   0.703 -0.5967  0.2421  0.9791
18772SOL    HW257758   0.771   2.086   0.658  0.1698  0.5774 -1.3263
18773SOL     OW57759   6.182   4.897   3.015 -0.4620  0.3106 -0.0429
18773SOL    HW157760   6.124   4.962   3.054  0.4873  1.1573  0.0191
18773SOL    HW257761   6.232   4.946   2.949  2.0069  0.2974  1.6612
18774SOL     OW57762   5.148   2.660  10.350  0.1433 -0.1796  0.5069
18774SOL    HW157763   5.146   2.756  10.353  1.0321 -0.0733 -1.2183
18774SOL    HW257764   5.242   2.638  10.346  0.0083 -1.2004  1.9962
18775SOL     OW57765   1.856   6.899  10.482 -0.0590  0.5063 -0.5552
18775SOL    HW157766   1.917   6.972  10.494  1.8589 -1.1875  0.5549
18775SOL    HW257767   1.892   6.850  10.408 -1.1580  0.4906 -1.1011
18776SOL     OW57768   4.106   6.990   5.345 -0.1813 -0.1308 -0.5059
18776SOL    HW157769   4.119   6.910   5.294  0.9961  0.9924 -2.0800
18776SOL    HW257770   4.058   7.048   5.287 -0.8576  0.3971  0.5493
18777SOL     OW57771   4.896   2.064   4.152 -0.1158 -0.0159 -0.2055
18777SOL    HW157772   4.971   2.087   4.098  0.1770 -0.1307  0.1466
18777SOL    HW257773   4.888   2.136   4.215  0.0589 -0.2815  0.1267
18778SOL     OW57774   0.622   6.849   4.542 -0.9902 -0.0574 -0.1815
18778SOL    HW157775   0.670   6.932   4.543  0.2695 -0.7515 -0.3953
18778SOL    HW257776   0.532   6.873   4.562 -0.6127  1.3372 -0.0423
18779SOL     OW57777   6.051   4.900   8.486  0.1769 -0.0945 -0.4023
18779SOL    HW157778   6.119   4.874   8.548 -1.7712 -1.1806  1.4047
18779SOL    HW257779   6.011   4.977   8.525 -1.5848 -1.2412  0.1905
18780SOL     OW57780   4.021   6.414   3.319  0.5051 -0.2002  0.3867
18780SOL    HW157781   3.940   6.422   3.268  0.4350  1.5883  0.7314
18780SOL    HW257782   4.078   6.359   3.265 -0.0588  0.5431 -1.0057
18781SOL     OW57783   3.495   5.792   6.334 -0.0708  0.0603 -0.4733
18781SOL    HW157784   3.571   5.822   6.284  0.3618 -1.0618 -0.5230
18781SOL    HW257785   3.510   5.825   6.422  0.8282 -0.7172 -0.3207
18782SOL     OW57786   3.042   1.396  11.946 -0.0647  0.2225  0.0244
18782SOL    HW157787   2.985   1.386  12.022 -0.7746  1.2507 -0.3527
18782SOL    HW257788   3.020   1.321  11.890  0.9736 -0.9455  1.1157
18783SOL     OW57789   7.060   0.106   4.863  0.0705 -0.1580 -0.2013
18783SOL    HW157790   7.140   0.118   4.914  0.3576  0.3136 -0.7594
18783SOL    HW257791   7.021   0.193   4.860 -1.5528 -0.7316  1.8243
18784SOL     OW57792   7.643   5.038   2.363 -0.1344  0.0528  0.2509
18784SOL    HW157793   7.684   5.060   2.447  0.2692 -0.9650  0.3386
18784SOL    HW257794   7.690   4.960   2.334 -0.6966  0.0318 -0.6219
18785SOL     OW57795   1.501   3.852   7.738  0.0491 -0.1493 -0.1630
18785SOL    HW157796   1.476   3.835   7.647  2.2699  1.2514 -1.1190
18785SOL    HW257797   1.567   3.921   7.732 -0.9308  1.1995  2.6574
18786SOL     OW57798   6.714   0.032   1.879 -0.2757 -0.0101 -0.5219
18786SOL    HW157799   6.690   0.091   1.808 -1.9523  0.7411  0.6059
18786SOL    HW257800   6.775   0.081   1.933 -1.0032  0.4149 -0.0604
18787SOL     OW57801   3.879   1.158  10.059 -0.5608  0.1980 -0.2409
18787SOL    HW157802   3.926   1.212   9.995  0.5021 -0.6373 -0.1894
18787SOL    HW257803   3.945   1.137  10.125 -1.1648 -0.5145  0.1479
18788SOL     OW57804   1.885   7.005   4.570  0.0843 -0.3135 -0.0978
18788SOL    HW157805   1.826   6.938   4.606  1.8194 -0.9762  1.6678
18788SOL    HW257806   1.830   7.082   4.559 -1.5373 -1.4466 -0.3739
18789SOL     OW57807   5.493   6.372   1.205 -0.2715  0.6961  0.1865
18789SOL    HW157808   5.523   6.384   1.295  0.6061  0.0589 -0.0053
18789SOL    HW257809   5.544   6.435   1.154  1.3065 -0.8447 -0.2350
18790SOL     OW57810   2.275   5.893   4.546  0.1961  0.2882  0.2676
18790SOL    HW157811   2.318   5.879   4.630 -1.0932  1.9456  1.2680
18790SOL    HW257812   2.183   5.868   4.561 -0.2486  1.4684 -0.3548
18791SOL     OW57813   3.377   3.003   4.282  0.0161  0.0170  0.5352
18791SOL    HW157814   3.387   3.085   4.233 -1.2379 -0.2874 -0.2739
18791SOL    HW257815   3.289   3.007   4.319 -0.8533 -1.7554 -1.1371
18792SOL     OW57816   0.081   2.347   8.965 -0.4605  0.5279  0.0589
18792SOL    HW157817   0.154   2.399   8.998 -2.2109  1.7160  2.3162
18792SOL    HW257818   0.025   2.410   8.921 -0.1023 -0.4134 -1.8587
18793SOL     OW57819   7.368   5.610   8.168 -0.2500 -0.0587 -0.0284
18793SOL    HW157820   7.274   5.625   8.157 -0.2830 -0.5781 -0.4618
18793SOL    HW257821   7.383   5.623   8.262 -1.0440 -1.5432  0.3371
18794SOL     OW57822   0.713   2.213   2.009  0.1849 -0.3292 -0.1211
18794SOL    HW157823   0.722   2.131   2.057 -0.1638  0.2405  0.9508
18794SOL    HW257824   0.692   2.186   1.919 -2.1649 -1.4217  0.6525
18795SOL     OW57825   7.384   5.300   7.557  0.3672  0.0266  0.4447
18795SOL    HW157826   7.425   5.332   7.637  0.3087 -0.2570  0.5914
18795SOL    HW257827   7.361   5.379   7.508  3.2861  0.2172 -0.8203
18796SOL     OW57828   2.908   5.980   2.225  0.1314 -0.0286  0.1052
18796SOL    HW157829   2.861   5.904   2.191 -0.9443  0.5048  0.3506
18796SOL    HW257830   2.998   5.949   2.237  0.5263 -0.3573 -2.8777
18797SOL     OW57831   1.552   2.203   2.436  0.1810  0.0373  0.1574
18797SOL    HW157832   1.591   2.158   2.362  1.6036  1.7367 -0.1795
18797SOL    HW257833   1.498   2.272   2.397  0.4263  0.5332  0.6703
18798SOL     OW57834   7.674   1.516   4.916 -0.3621  0.3441 -0.3713
18798SOL    HW157835   7.644   1.600   4.881 -0.4879  1.0205  1.2576
18798SOL    HW257836   7.769   1.517   4.905 -0.0825  1.7275  1.6219
18799SOL     OW57837   4.197   6.731   0.481 -0.3382 -0.4222  0.6159
18799SOL    HW157838   4.203   6.817   0.522  2.9800  0.3178 -1.0901
18799SOL    HW257839   4.203   6.669   0.554 -2.0275  0.7139  1.7987
18800SOL     OW57840   2.520   6.582  10.999  0.0313  0.6035 -0.1568
18800SOL    HW157841   2.459   6.629  10.941 -0.5393  0.4722  0.3294
18800SOL    HW257842   2.472   6.504  11.027 -0.3532  1.4964  1.8234
18801SOL     OW57843   3.016   7.040   4.843 -0.5985  0.1699  0.4097
18801SOL    HW157844   2.947   7.027   4.778 -1.0343 -0.9396  1.0594
18801SOL    HW257845   2.975   7.017   4.927  0.0219  1.3224  1.0504
18802SOL     OW57846   6.793   6.980   0.055  0.6225  0.3689 -0.2697
18802SOL    HW157847   6.887   6.990   0.071  0.3344  0.0462  1.9560
18802SOL    HW257848   6.788   6.942  -0.033  2.6207 -0.4692 -0.0812
18803SOL     OW57849   1.749   5.216   8.458  0.1817 -0.3618 -0.1800
18803SOL    HW157850   1.778   5.295   8.503  1.1673 -0.5143 -0.5107
18803SOL    HW257851   1.748   5.148   8.525  1.4434 -0.5430 -0.3230
18804SOL     OW57852   6.318   2.867   4.044 -0.5936 -0.2024 -0.2128
18804SOL    HW157853   6.316   2.920   4.125  0.6734 -1.1447  0.4580
18804SOL    HW257854   6.392   2.901   3.995 -0.4664 -0.6089 -0.3024
18805SOL     OW57855   4.398   3.749   3.443 -0.3659  0.1207 -0.3617
18805SOL    HW157856   4.354   3.664   3.444 -1.7776  0.6388 -4.1840
18805SOL    HW257857   4.371   3.790   3.525 -1.1388 -2.3558  0.7336
18806SOL     OW57858   5.386   2.267   5.782  0.2838  0.4648 -0.7427
18806SOL    HW157859   5.351   2.317   5.856 -1.6298 -0.5076 -0.9411
18806SOL    HW257860   5.477   2.296   5.776  0.4231  0.8209  1.7743
18807SOL     OW57861   3.478   2.489   8.788  0.1224 -0.3185 -0.5816
18807SOL    HW157862   3.448   2.400   8.809 -1.4325  0.3052  0.0132
18807SOL    HW257863   3.442   2.506   8.701 -1.1019  0.3590  0.0437
18808SOL     OW57864   4.418   0.225   8.386  0.5658 -0.0673 -0.1367
18808SOL    HW157865   4.334   0.182   8.374  0.4614 -0.0040  0.3452
18808SOL    HW257866   4.436   0.267   8.303  0.5493 -0.8295 -0.5376
18809SOL     OW57867   5.413   4.592   2.452 -0.1188  0.6196  0.9445
18809SOL    HW157868   5.444   4.660   2.393 -0.1499  0.4048  0.6809
18809SOL    HW257869   5.419   4.511   2.401 -0.4514  0.4786  1.1263
18810SOL     OW57870   7.346   3.999   7.679 -0.0850 -0.6890  0.2417
18810SOL    HW157871   7.393   4.079   7.657  1.2855 -1.2445  0.9891
18810SOL    HW257872   7.290   3.981   7.603  2.2403 -0.9471 -1.4989
18811SOL     OW57873   1.693   6.743   4.859 -0.0214  0.4239  0.2481
18811SOL    HW157874   1.736   6.674   4.908  2.2642  1.6968  0.1704
18811SOL    HW257875   1.742   6.823   4.880 -1.2815  1.6734 -1.2163
18812SOL     OW57876   3.774   0.382   5.229 -0.3045  1.1022 -0.0922
18812SOL    HW157877   3.742   0.292   5.227  1.5635  0.3918 -2.6466
18812SOL    HW257878   3.810   0.397   5.142 -0.0037  4.1381  0.4554
18813SOL     OW57879   7.465   5.599   8.759 -0.6139  0.3562  0.0968
18813SOL    HW157880   7.422   5.514   8.757 -0.7975  0.4504 -0.0119
18813SOL    HW257881   7.418   5.648   8.827 -0.4747  0.3511  0.1957
18814SOL     OW57882   4.953   1.912  10.204 -1.0227  0.0114  0.0292
18814SOL    HW157883   4.920   1.839  10.256 -0.6422  0.7010  1.2743
18814SOL    HW257884   5.032   1.878  10.162 -0.5862 -0.1610  0.9703
18815SOL     OW57885   7.269   7.416   9.949 -0.3172 -0.4754 -0.2210
18815SOL    HW157886   7.186   7.456   9.924 -0.4112 -0.9421 -0.6763
18815SOL    HW257887   7.278   7.341   9.890  1.9781  1.4168 -2.5487
18816SOL     OW57888   3.379   6.932   2.024  0.1874 -0.5005 -0.1150
18816SOL    HW157889   3.368   6.927   2.118 -0.5535  2.4068  0.0415
18816SOL    HW257890   3.292   6.918   1.988 -0.3315  2.0626 -0.0639
18817SOL     OW57891   5.777   7.964   6.639 -0.3802  1.0098  0.2024
18817SOL    HW157892   5.776   7.868   6.635 -0.8803  1.0131  0.2206
18817SOL    HW257893   5.715   7.986   6.707 -0.1519  1.3466  0.3056
18818SOL     OW57894   6.499   0.593   4.093 -0.0085  0.4407  0.0633
18818SOL    HW157895   6.539   0.636   4.169  1.8848  0.7809 -1.0721
18818SOL    HW257896   6.453   0.663   4.047  1.2676  0.8584 -0.6227
18819SOL     OW57897   5.995   6.827   7.726 -0.6335  0.4598  0.1103
18819SOL    HW157898   6.007   6.843   7.820  0.0475  0.7193 -0.0141
18819SOL    HW257899   6.080   6.847   7.688 -0.8149  0.0273 -0.5242
18820SOL     OW57900   4.603   6.514   3.550  0.8828  0.4446  0.4884
18820SOL    HW157901   4.607   6.607   3.573  0.7386  0.3347  0.9732
18820SOL    HW257902   4.513   6.489   3.570  0.4401  0.5873 -1.1905
18821SOL     OW57903   7.912   3.800   9.066  0.0427 -0.0906  0.1722
18821SOL    HW157904   7.937   3.732   9.002 -2.5459 -0.5553 -0.4533
18821SOL    HW257905   7.879   3.872   9.012  0.9566  0.9196  0.9182
18822SOL     OW57906   2.436   2.520   6.514  0.1806  0.0162  0.3533
18822SOL    HW157907   2.414   2.464   6.439 -1.2379 -0.9619  1.4361
18822SOL    HW257908   2.515   2.566   6.487 -0.1368 -0.4950 -1.6393
18823SOL     OW57909   6.403   0.390   4.311  0.2274  0.4166  0.0282
18823SOL    HW157910   6.365   0.304   4.294 -0.9798  1.1235 -1.1102
18823SOL    HW257911   6.423   0.424   4.224  1.1326  1.1032  0.4920
18824SOL     OW57912   6.108   5.874   7.071 -0.5539 -0.4701  0.2824
18824SOL    HW157913   6.191   5.866   7.023 -1.4106 -0.3899 -1.2966
18824SOL    HW257914   6.110   5.802   7.133  1.4597  0.5800  1.5529
18825SOL     OW57915   1.562   5.380   7.501  0.5183  0.1210 -0.4345
18825SOL    HW157916   1.503   5.304   7.502  2.4019 -1.4318  0.3319
18825SOL    HW257917   1.568   5.405   7.409  0.3162 -1.0893 -0.8002
18826SOL     OW57918   1.059   1.971   1.427  0.4213  0.0327 -0.4291
18826SOL    HW157919   1.006   1.969   1.507  1.7542  0.4150  0.5063
18826SOL    HW257920   0.998   1.947   1.357 -0.7418 -0.4907  0.7171
18827SOL     OW57921   1.352   3.893   4.307  0.1010  0.7573  0.2411
18827SOL    HW157922   1.344   3.948   4.385 -0.3401  1.9601 -0.6186
18827SOL    HW257923   1.322   3.949   4.236 -1.1319 -0.8579 -0.5810
18828SOL     OW57924   7.235   2.105   5.866 -0.3113 -1.1208  0.0001
18828SOL    HW157925   7.180   2.026   5.870 -0.7465 -0.9492 -1.8263
18828SOL    HW257926   7.193   2.160   5.799  1.4552 -0.4891 -0.6269
18829SOL     OW57927   3.720   1.856  10.126 -0.3118  0.1683  0.3957
18829SOL    HW157928   3.796   1.913  10.121  0.9295 -1.4067  0.5274
18829SOL    HW257929   3.647   1.911  10.098  1.2828  0.9629 -2.5927
18830SOL     OW57930   3.611   4.937  10.456  0.4291 -0.1228 -0.1410
18830SOL    HW157931   3.673   4.984  10.512  0.2578  2.2203 -1.7751
18830SOL    HW257932   3.666   4.886  10.397  0.7607  0.6619 -0.5225
18831SOL     OW57933   5.982   7.413  12.347  0.2342  0.3620  0.5625
18831SOL    HW157934   5.890   7.398  12.326  0.0520  0.1591  1.4655
18831SOL    HW257935   6.020   7.326  12.352  0.2758  0.4005  1.0146
18832SOL     OW57936   6.671   4.468   6.716  0.7636 -0.0101  0.3962
18832SOL    HW157937   6.741   4.515   6.671 -0.5140  0.2925 -1.4142
18832SOL    HW257938   6.704   4.379   6.726  1.1284 -0.0833 -1.1764
18833SOL     OW57939   5.289   0.638   8.017 -0.1186 -0.2044  0.2485
18833SOL    HW157940   5.338   0.690   7.953  1.1954 -0.0689  1.3279
18833SOL    HW257941   5.323   0.666   8.102 -1.4208 -0.7930  0.9885
18834SOL     OW57942   4.552   7.447   4.182 -0.2883 -0.5693  0.2302
18834SOL    HW157943   4.475   7.462   4.237  0.5292 -0.7079  1.4328
18834SOL    HW257944   4.556   7.525   4.126 -1.6504 -0.8439 -0.2960
18835SOL     OW57945   2.696   7.751   4.188  0.5190 -0.0409 -0.1202
18835SOL    HW157946   2.667   7.663   4.166  1.7480 -0.5203  0.0928
18835SOL    HW257947   2.649   7.773   4.268  0.2965 -0.5540 -0.1112
18836SOL     OW57948   5.822   1.895   5.963 -0.0347 -0.3237  0.5380
18836SOL    HW157949   5.800   1.963   5.900 -0.7779 -1.4992 -0.5155
18836SOL    HW257950   5.909   1.866   5.937 -0.8083 -1.6191 -0.7375
18837SOL     OW57951   6.172   5.748   2.156  0.0584  0.0988  0.1541
18837SOL    HW157952   6.267   5.753   2.166 -0.0590 -0.6524  1.9779
18837SOL    HW257953   6.155   5.657   2.130 -0.0456  0.8085 -2.6589
18838SOL     OW57954   0.736   2.532  11.376  0.3317  0.2431  0.1123
18838SOL    HW157955   0.802   2.489  11.431  1.3760 -0.3158 -1.5334
18838SOL    HW257956   0.746   2.625  11.396  1.5504  0.1580 -0.0359
18839SOL     OW57957   7.752   2.920   8.246 -0.2337  0.0168  0.4472
18839SOL    HW157958   7.804   2.913   8.326 -1.0584  0.1002  0.9926
18839SOL    HW257959   7.685   2.853   8.255 -0.7830  0.5212  0.1656
18840SOL     OW57960   3.335   7.294   2.547  0.6475  0.9320  0.3864
18840SOL    HW157961   3.394   7.259   2.480 -0.0961 -0.7993  0.5719
18840SOL    HW257962   3.333   7.227   2.615 -1.8557  0.6862  0.1873
18841SOL     OW57963   3.029   3.106  11.021  0.0604  0.4878  0.1689
18841SOL    HW157964   2.999   3.161  10.948 -1.3765 -1.1975 -0.5870
18841SOL    HW257965   3.086   3.042  10.980 -1.6608 -1.1832  0.2542
18842SOL     OW57966   1.211   2.008   7.455  0.2131 -0.0070  0.0359
18842SOL    HW157967   1.168   1.943   7.511  3.7218 -2.5667  0.0760
18842SOL    HW257968   1.202   1.973   7.366  0.1796  0.6695 -0.2298
18843SOL     OW57969   4.902   2.295   7.379 -0.1214  0.0536  0.2971
18843SOL    HW157970   4.866   2.318   7.464 -0.8902 -0.6393  0.1815
18843SOL    HW257971   4.880   2.202   7.368 -0.2761  0.1987 -0.7676
18844SOL     OW57972   6.376   7.614   1.903 -1.0200  0.2259 -0.2712
18844SOL    HW157973   6.404   7.685   1.960 -1.6129 -0.4059  0.8506
18844SOL    HW257974   6.396   7.644   1.814  0.2850  1.0806  0.2805
18845SOL     OW57975   1.348   2.178   6.867  0.6748 -0.7890 -1.0138
18845SOL    HW157976   1.440   2.178   6.841  0.9929 -0.7609  0.0948
18845SOL    HW257977   1.343   2.117   6.940  0.0525  0.1438 -0.2474
18846SOL     OW57978   5.878   0.936   1.756  0.4572 -0.3134 -0.1464
18846SOL    HW157979   5.855   1.028   1.743  2.0406  0.0367 -0.6134
18846SOL    HW257980   5.846   0.891   1.678  0.6118  0.0147 -0.3953
18847SOL     OW57981   3.048   3.475   0.736 -0.2194 -0.2315  0.2235
18847SOL    HW157982   3.065   3.569   0.736 -0.4518 -0.1895 -0.1517
18847SOL    HW257983   3.114   3.438   0.795  0.3446  0.0776 -0.2201
18848SOL     OW57984   5.384   3.477   6.414  0.0921  0.0841  0.1641
18848SOL    HW157985   5.467   3.517   6.442 -0.1295 -0.5541  1.9056
18848SOL    HW257986   5.329   3.550   6.389  0.5311  0.6828  0.8906
18849SOL     OW57987   5.737   4.919   8.314  0.1410  0.0577  0.1527
18849SOL    HW157988   5.791   4.995   8.333 -0.5236  0.6431 -0.2251
18849SOL    HW257989   5.715   4.882   8.400  0.7656  0.0790  0.3216
18850SOL     OW57990   4.446   4.905   8.966  0.5523 -0.1960 -0.7723
18850SOL    HW157991   4.520   4.912   9.026  1.0499  0.6892 -1.4670
18850SOL    HW257992   4.373   4.943   9.013  0.3536 -1.6518  0.1692
18851SOL     OW57993   6.086   6.956  12.119  0.0538  0.0026 -0.0264
18851SOL    HW157994   6.163   7.002  12.088 -0.3597  0.1423 -0.8849
18851SOL    HW257995   6.111   6.863  12.119  0.1212  0.0164 -0.6294
18852SOL     OW57996   6.572   0.245   1.707 -0.0840 -0.6958 -0.5670
18852SOL    HW157997   6.530   0.260   1.622 -1.4299 -0.7908  0.0412
18852SOL    HW257998   6.576   0.332   1.747  0.3599 -0.6819 -0.6365
18853SOL     OW57999   2.433   1.795   7.835  0.3580  0.0018 -0.0674
18853SOL    HW158000   2.490   1.796   7.758  0.6549 -1.9801  0.0499
18853SOL    HW258001   2.479   1.847   7.900  0.6855  0.7116 -0.8562
18854SOL     OW58002   5.040   6.911   2.796 -0.0050 -0.5135  0.5242
18854SOL    HW158003   5.002   6.966   2.727  1.2468  0.3104  0.4615
18854SOL    HW258004   5.071   6.973   2.861  0.8993 -1.1705  0.7411
18855SOL     OW58005   7.510   7.253   2.810  0.1421  0.4814 -0.0913
18855SOL    HW158006   7.562   7.174   2.819  0.4396  0.6000 -0.7142
18855SOL    HW258007   7.546   7.313   2.875 -0.7238 -0.2143  1.0721
18856SOL     OW58008   0.953   6.904  10.136  0.1259 -0.2123  0.1444
18856SOL    HW158009   1.016   6.956  10.087 -0.1173  0.0062  0.0610
18856SOL    HW258010   1.003   6.869  10.210  0.2108  0.4359  0.4040
18857SOL     OW58011   1.934   1.476   0.782 -0.3035 -0.3958  0.0587
18857SOL    HW158012   1.897   1.391   0.806 -2.4218  0.9571  2.0642
18857SOL    HW258013   1.956   1.517   0.866 -0.6412  1.5798 -0.7623
18858SOL     OW58014   2.243   2.371   5.022 -0.1519  0.4288  0.3459
18858SOL    HW158015   2.293   2.452   5.013 -0.2809  0.9138  2.9555
18858SOL    HW258016   2.280   2.312   4.957  1.5564  1.8337 -0.0397
18859SOL     OW58017   0.324   5.590  10.863 -0.0748 -0.4044  0.2880
18859SOL    HW158018   0.298   5.680  10.843  0.9690 -0.1013  0.1905
18859SOL    HW258019   0.358   5.595  10.952 -0.5466 -0.8226  0.4904
18860SOL     OW58020   4.024   3.961   4.626 -0.4761 -0.8282 -0.3920
18860SOL    HW158021   4.023   3.976   4.721 -1.6853 -0.7888 -0.3986
18860SOL    HW258022   3.947   3.907   4.609  0.0011 -1.2491 -1.2987
18861SOL     OW58023   0.492   3.987   4.772 -0.7800 -0.1169  0.1324
18861SOL    HW158024   0.554   4.042   4.723 -1.8103 -0.2508 -1.4028
18861SOL    HW258025   0.545   3.914   4.803 -0.0163  0.1228 -0.5391
18862SOL     OW58026   3.783   7.040  10.524  0.5340  0.2037 -0.2532
18862SOL    HW158027   3.711   7.067  10.581 -1.8659 -3.5075 -1.1605
18862SOL    HW258028   3.855   7.021  10.584 -1.0603 -1.0847  1.3684
18863SOL     OW58029   2.442   2.228   6.671  0.5377  0.2403  0.1731
18863SOL    HW158030   2.484   2.237   6.756 -0.3029  0.4724  0.5658
18863SOL    HW258031   2.515   2.230   6.609  1.1933 -0.4524  0.9077
18864SOL     OW58032   0.724   3.709   9.416  0.0895  0.2749 -0.3478
18864SOL    HW158033   0.813   3.711   9.382  0.5460  0.4089  0.7858
18864SOL    HW258034   0.730   3.758   9.499 -1.0329  0.2786 -0.2575
18865SOL     OW58035   2.477   2.539  10.327 -0.1182  0.5942  0.0064
18865SOL    HW158036   2.533   2.591  10.385 -0.6288  1.1122  0.0455
18865SOL    HW258037   2.463   2.457  10.374  1.2524  0.1300 -0.3485
18866SOL     OW58038   6.192   6.689   3.932 -0.1088  0.3580  0.0048
18866SOL    HW158039   6.270   6.682   3.988  0.3016 -0.7150 -0.6701
18866SOL    HW258040   6.119   6.666   3.990  0.0749  1.2399  0.6090
18867SOL     OW58041   7.711   4.402   6.925  0.0493 -0.0255 -0.8447
18867SOL    HW158042   7.616   4.393   6.915  0.0634 -2.6646  0.4085
18867SOL    HW258043   7.739   4.446   6.844 -2.0021 -1.2869 -2.3664
18868SOL     OW58044   0.348   3.623   5.645 -0.2978 -0.4095 -0.4454
18868SOL    HW158045   0.324   3.575   5.724 -0.0969  0.3455  0.0805
18868SOL    HW258046   0.401   3.696   5.676 -2.3370  1.4038 -0.9945
18869SOL     OW58047   2.912   0.754   0.891  0.2092 -0.2261 -0.2813
18869SOL    HW158048   2.871   0.733   0.807 -4.0073  0.3350  1.3555
18869SOL    HW258049   2.905   0.674   0.942 -2.5052  0.7839  1.1909
18870SOL     OW58050   4.524   2.612   3.301 -0.0952  0.4324  0.1732
18870SOL    HW158051   4.584   2.565   3.244  0.3550  1.7793 -0.5124
18870SOL    HW258052   4.580   2.669   3.353 -0.7161  1.4762 -0.2538
18871SOL     OW58053   2.128   4.530   3.489  0.0317 -0.1589 -0.0822
18871SOL    HW158054   2.172   4.520   3.404 -1.7923  0.1735 -1.1212
18871SOL    HW258055   2.193   4.500   3.553  2.1944  1.4096 -1.3915
18872SOL     OW58056   6.723   5.213   3.682  0.5083 -0.0638 -0.0857
18872SOL    HW158057   6.667   5.288   3.662  0.5907 -0.2303 -0.9542
18872SOL    HW258058   6.730   5.214   3.778 -0.0709  0.6119 -0.0402
18873SOL     OW58059   7.765   1.362   5.358  0.2403  0.2519 -0.0118
18873SOL    HW158060   7.782   1.440   5.304  0.0997  0.3332  0.0612
18873SOL    HW258061   7.689   1.386   5.410  0.8526  0.4701  0.8057
18874SOL     OW58062   4.192   1.810   4.530  0.2225  0.6986  0.1943
18874SOL    HW158063   4.284   1.832   4.512 -0.0652  1.4943 -0.3453
18874SOL    HW258064   4.177   1.840   4.620  0.7396 -0.2842  0.6282
18875SOL     OW58065   1.763   1.247   2.679 -0.0123 -0.2492 -0.3855
18875SOL    HW158066   1.801   1.161   2.700 -0.1628 -0.4415 -0.8883
18875SOL    HW258067   1.791   1.303   2.751 -1.3980 -1.1417  0.8981
18876SOL     OW58068   4.961   7.475   1.836  0.2886  0.0077 -0.0582
18876SOL    HW158069   5.020   7.524   1.779 -0.2633  2.1476  1.0641
18876SOL    HW258070   4.874   7.493   1.801  0.0707 -0.0847  0.4221
18877SOL     OW58071   4.759   3.350   3.973 -0.6880  0.4058 -0.5976
18877SOL    HW158072   4.742   3.265   4.015  0.6468 -0.5395 -1.9057
18877SOL    HW258073   4.744   3.334   3.880  0.2712  1.4266 -0.9378
18878SOL     OW58074   5.654   5.878   9.765 -0.1830  0.5273  0.3087
18878SOL    HW158075   5.701   5.931   9.829 -0.5935 -0.0335  1.0933
18878SOL    HW258076   5.676   5.788   9.789  0.3684  0.3205 -0.8976
18879SOL     OW58077   6.559   4.947   4.658 -0.3598  0.1056  0.0698
18879SOL    HW158078   6.628   4.894   4.618  0.8260  1.1721  0.6244
18879SOL    HW258079   6.568   4.931   4.752 -1.5842 -0.5625  0.0917
18880SOL     OW58080   6.221   5.359   8.642 -0.0154 -0.1749 -0.3669
18880SOL    HW158081   6.178   5.427   8.590  2.1352  2.3194  0.9183
18880SOL    HW258082   6.183   5.368   8.729 -0.4569 -1.3914 -0.4076
18881SOL     OW58083   3.809   5.615  11.040 -0.0677  0.2003 -0.1487
18881SOL    HW158084   3.855   5.590  11.119 -0.5725  1.0642  0.4333
18881SOL    HW258085   3.807   5.535  10.987  0.9268 -0.1857  0.3746
18882SOL     OW58086   0.406   7.375   5.061  0.4360 -0.4073  0.5828
18882SOL    HW158087   0.402   7.464   5.027  1.5585 -0.4058  0.4097
18882SOL    HW258088   0.495   7.367   5.096 -0.0164 -1.0878  1.6351
18883SOL     OW58089   5.658   7.571   4.397 -0.2159  0.2877  0.6531
18883SOL    HW158090   5.592   7.570   4.466 -0.4172 -0.0531  0.4593
18883SOL    HW258091   5.691   7.660   4.397 -2.4794  1.2024 -0.9439
18884SOL     OW58092   3.799   4.529   3.678  0.3044 -0.0440 -0.1187
18884SOL    HW158093   3.865   4.503   3.614  0.5506  1.2215 -0.4009
18884SOL    HW258094   3.831   4.494   3.761  0.2570 -1.2297 -0.5678
18885SOL     OW58095   6.735   6.401   3.994 -0.0058 -0.3828  1.0175
18885SOL    HW158096   6.683   6.459   3.938  1.8472 -0.4545 -0.8905
18885SOL    HW258097   6.670   6.358   4.050 -1.6000  2.2456  1.3546
18886SOL     OW58098   7.438   3.401   8.981  0.2396  0.1990  0.3143
18886SOL    HW158099   7.499   3.406   8.907 -0.7852  2.1132 -0.4659
18886SOL    HW258100   7.353   3.384   8.942  0.2437 -3.2567  1.4527
18887SOL     OW58101   1.124   6.510   3.658  0.6994  0.2955 -0.0898
18887SOL    HW158102   1.141   6.501   3.752  0.6512  1.0484 -0.0003
18887SOL    HW258103   1.058   6.579   3.652 -0.1448 -0.5246 -0.6141
18888SOL     OW58104   2.048   5.697   0.434 -0.3137  0.1496 -0.3868
18888SOL    HW158105   2.046   5.790   0.411  0.6507  0.3857  0.4195
18888SOL    HW258106   2.110   5.691   0.507 -0.7873 -1.0467 -0.0530
18889SOL     OW58107   0.818   7.553   8.341  0.5206  0.1756  0.0643
18889SOL    HW158108   0.836   7.461   8.321  0.3897 -0.2570  1.7993
18889SOL    HW258109   0.739   7.574   8.291  0.6271 -0.6142 -0.4385
18890SOL     OW58110   2.942   5.167  10.995 -0.3510 -0.1887  0.0823
18890SOL    HW158111   3.016   5.108  10.980  0.9106  0.3608  3.3024
18890SOL    HW258112   2.944   5.184  11.089 -2.8410  2.1886 -0.1751
18891SOL     OW58113   5.024   4.990   6.976  0.1270  0.2148 -0.2229
18891SOL    HW158114   5.023   5.083   6.953 -1.3150  0.2635 -0.0594
18891SOL    HW258115   4.968   4.949   6.911  0.1481 -0.4304  0.1575
18892SOL     OW58116   3.581   1.874   4.558  0.5707 -0.1127 -0.1922
18892SOL    HW158117   3.523   1.949   4.549 -1.2873 -1.6104 -1.5238
18892SOL    HW258118   3.543   1.807   4.501  1.5676 -2.4207  1.6653
18893SOL     OW58119   0.464   3.195   7.427 -0.3993  0.2225 -0.2030
18893SOL    HW158120   0.542   3.249   7.418  0.2199 -0.7330 -0.7608
18893SOL    HW258121   0.476   3.148   7.510  0.2012 -0.7978 -0.8452
18894SOL     OW58122   1.630   1.550   9.539 -0.3935  0.1453 -0.1020
18894SOL    HW158123   1.680   1.551   9.621 -2.4296  1.1591  1.2002
18894SOL    HW258124   1.539   1.559   9.566 -1.1656  0.1728 -2.4866
18895SOL     OW58125   0.095   7.335   3.332 -0.0745 -0.0216  0.6636
18895SOL    HW158126   0.048   7.285   3.265 -0.5307 -2.0551  2.4070
18895SOL    HW258127   0.128   7.412   3.285 -1.5827 -0.6216 -1.5501
18896SOL     OW58128   0.797   4.971  11.604 -0.1235  0.5791 -0.2254
18896SOL    HW158129   0.722   4.952  11.660  0.2514  0.4631  0.2453
18896SOL    HW258130   0.778   4.925  11.522 -2.1621  3.2265 -1.3921
18897SOL     OW58131   4.870   3.719   1.477  0.1649  0.0929 -0.0178
18897SOL    HW158132   4.834   3.649   1.422  2.0892 -0.5616 -0.5120
18897SOL    HW258133   4.874   3.795   1.420 -0.5680  0.2318  0.1002
18898SOL     OW58134   0.405   6.631   7.043  0.2516 -0.5320 -0.1003
18898SOL    HW158135   0.400   6.564   7.110 -0.2460 -1.2698 -0.8561
18898SOL    HW258136   0.493   6.668   7.053  0.3618 -0.9715  0.6207
18899SOL     OW58137   2.949   2.445  11.732  0.3298  0.1086  0.8861
18899SOL    HW158138   2.954   2.387  11.808  2.4528 -0.6915  0.2088
18899SOL    HW258139   2.908   2.392  11.664 -1.7130  0.8739  1.4398
18900SOL     OW58140   6.546   1.252   7.071  0.2500 -0.1617  0.6256
18900SOL    HW158141   6.480   1.318   7.051  0.5179 -0.1463 -0.2240
18900SOL    HW258142   6.630   1.295   7.055  0.5780  0.3294  3.1575
18901SOL     OW58143   4.009   2.279  12.107 -0.0760  0.0072 -0.4817
18901SOL    HW158144   4.101   2.254  12.112 -0.1246  0.0754  1.5622
18901SOL    HW258145   4.000   2.350  12.170 -1.3668  0.5828 -1.2775
18902SOL     OW58146   6.608   2.881   2.177 -0.3842  0.1019  0.0114
18902SOL    HW158147   6.533   2.926   2.138  0.2754  2.2697  1.0871
18902SOL    HW258148   6.663   2.857   2.102 -1.1566  0.3766 -0.6566
18903SOL     OW58149   7.258   4.811   6.855  0.2211 -0.2675  0.5326
18903SOL    HW158150   7.240   4.739   6.915  1.0513  1.9893  3.7823
18903SOL    HW258151   7.176   4.823   6.807 -0.0451 -3.0340  0.1426
18904SOL     OW58152   2.176   2.078   0.131 -0.0904  0.1383 -0.0326
18904SOL    HW158153   2.116   2.094   0.058  2.1578 -1.4773 -2.3804
18904SOL    HW258154   2.120   2.043   0.200 -2.1194  0.5146 -1.3776
18905SOL     OW58155   4.667   7.550   9.215  0.2776  0.0871 -0.6350
18905SOL    HW158156   4.758   7.576   9.230  0.0878  0.4694 -0.1418
18905SOL    HW258157   4.635   7.611   9.149  0.5035 -0.3261 -1.1404
18906SOL     OW58158   0.101   0.985   3.983  0.2155 -0.1913  0.3409
18906SOL    HW158159   0.019   1.005   4.026  1.4471  1.1579  2.1808
18906SOL    HW258160   0.110   0.890   3.990 -0.1374 -0.1098  2.1542
18907SOL     OW58161   1.527   7.464   1.457  0.2910 -0.4578  0.3811
18907SOL    HW158162   1.466   7.436   1.389  1.1072  1.2070 -1.1269
18907SOL    HW258163   1.610   7.421   1.434  0.5476  0.0404  0.3557
18908SOL     OW58164   6.396   4.709   8.860  0.0814 -0.2467  0.1209
18908SOL    HW158165   6.352   4.656   8.926 -1.1042 -2.0973 -2.0191
18908SOL    HW258166   6.489   4.692   8.873 -0.2388 -2.4523 -0.1393
18909SOL     OW58167   6.515   5.670  10.114  0.5709  0.1492 -0.1012
18909SOL    HW158168   6.554   5.748  10.074  0.1195  0.6215  0.3473
18909SOL    HW258169   6.448   5.706  10.173 -1.8789 -0.6544 -2.2046
18910SOL     OW58170   5.988   0.978   8.316 -0.2767  0.0324  0.4914
18910SOL    HW158171   5.981   1.016   8.228  1.2111 -0.9607 -0.0999
18910SOL    HW258172   5.992   1.053   8.375  3.7673  1.0029 -0.7050
18911SOL     OW58173   3.851   5.603   3.075  0.5193  0.2795  0.0533
18911SOL    HW158174   3.943   5.579   3.062  0.1432 -1.8580  1.0014
18911SOL    HW258175   3.805   5.563   3.001 -0.1645 -2.5524  1.8550
18912SOL     OW58176   5.071   4.501   0.226  0.0295  0.0282 -0.1777
18912SOL    HW158177   5.119   4.574   0.185 -1.4242  0.3319 -1.4496
18912SOL    HW258178   5.025   4.541   0.299  1.4953 -0.2238  0.9227
18913SOL     OW58179   2.792   4.923   4.376  0.1361 -0.2636 -0.2839
18913SOL    HW158180   2.770   4.937   4.283 -2.3833  0.0696  0.2872
18913SOL    HW258181   2.783   4.829   4.389 -0.1801 -0.2251 -0.2259
18914SOL     OW58182   1.186   6.419   6.611 -0.0782 -0.0004  0.0328
18914SOL    HW158183   1.174   6.426   6.516 -0.9787  1.8796  0.2408
18914SOL    HW258184   1.261   6.476   6.629  1.4683 -1.9953  0.2477
18915SOL     OW58185   1.020   6.048   5.185 -0.4209 -0.2901  0.3715
18915SOL    HW158186   1.035   6.118   5.121  1.4436 -1.0104 -0.0585
18915SOL    HW258187   1.084   6.066   5.254 -0.2858 -1.2473  0.5084
18916SOL     OW58188   2.558   2.011   7.562  0.1451 -0.0783  0.1955
18916SOL    HW158189   2.574   1.957   7.485  0.0946  0.0048  0.1268
18916SOL    HW258190   2.463   2.017   7.569  0.1511  0.1045  0.1294
18917SOL     OW58191   0.116   7.573   3.634  0.4673 -0.4979  0.5800
18917SOL    HW158192   0.207   7.547   3.616 -0.1267 -1.4784 -1.3807
18917SOL    HW258193   0.122   7.634   3.707  2.9161  0.9452 -0.6898
18918SOL     OW58194   3.649   1.267   1.901 -0.2307  0.3650  0.5132
18918SOL    HW158195   3.562   1.287   1.868  0.1010 -0.9132 -1.2674
18918SOL    HW258196   3.651   1.172   1.906  1.6763  0.2480 -1.3337
18919SOL     OW58197   5.488   4.944   3.552 -0.1459  0.0229  0.0975
18919SOL    HW158198   5.525   4.957   3.465 -1.8105 -2.7553 -1.1909
18919SOL    HW258199   5.543   4.877   3.592  0.5263  1.1865  1.1956
18920SOL     OW58200   1.815   2.859   9.325  0.3899 -0.1879  0.9009
18920SOL    HW158201   1.805   2.766   9.346 -1.5969  0.2359  2.0595
18920SOL    HW258202   1.882   2.891   9.386  1.0635 -0.8150  0.5115
18921SOL     OW58203   2.558   5.386  10.840 -0.0142  0.3738  0.6343
18921SOL    HW158204   2.527   5.306  10.798  0.5983 -0.4696  1.7302
18921SOL    HW258205   2.649   5.367  10.863 -0.0945  1.1044  1.6121
18922SOL     OW58206   3.157   7.483   3.853 -0.5500 -0.3006 -0.2104
18922SOL    HW158207   3.240   7.519   3.882 -0.4393  1.1021 -2.0539
18922SOL    HW258208   3.179   7.396   3.820  0.4283  0.4154 -1.5709
18923SOL     OW58209   0.027   2.571   3.207 -0.1691 -0.7073  0.1601
18923SOL    HW158210   0.063   2.648   3.163 -0.0289 -1.3524 -0.8951
18923SOL    HW258211   0.099   2.539   3.262 -0.1317 -0.2725  0.3708
18924SOL     OW58212   7.663   0.332   4.184  0.2194  0.5837  0.4794
18924SOL    HW158213   7.620   0.414   4.206  0.0857  0.7079 -0.2364
18924SOL    HW258214   7.715   0.351   4.106  1.5654  0.4247  1.3024
18925SOL     OW58215   4.812   4.333   0.720  0.2522  0.0216 -0.2730
18925SOL    HW158216   4.885   4.296   0.769 -0.9123 -0.9841  0.7831
18925SOL    HW258217   4.793   4.416   0.766 -0.0667 -0.3335  0.2463
18926SOL     OW58218   1.424   0.104   9.428 -0.5615 -0.7733  0.4169
18926SOL    HW158219   1.416   0.063   9.514 -1.5520 -1.8536 -0.1568
18926SOL    HW258220   1.388   0.192   9.440  1.1057 -0.1997  1.5439
18927SOL     OW58221   2.013   4.224   0.567 -0.1940 -0.0119 -0.0561
18927SOL    HW158222   1.944   4.202   0.630 -0.3148 -0.8800 -0.4763
18927SOL    HW258223   2.091   4.180   0.601 -0.2627 -0.4976 -0.5115
18928SOL     OW58224   3.320   0.931  11.943 -0.3361 -0.0105 -0.2234
18928SOL    HW158225   3.402   0.896  11.977 -1.1010 -1.9238 -0.2058
18928SOL    HW258226   3.322   0.910  11.849 -0.5602  0.4392 -0.3302
18929SOL     OW58227   5.281   5.266   0.288 -0.5494 -0.6402  0.1193
18929SOL    HW158228   5.281   5.239   0.380  0.0587 -2.8294 -0.4782
18929SOL    HW258229   5.199   5.231   0.253  0.0624 -1.3850 -0.5873
18930SOL     OW58230   1.857   1.583   5.571  0.3435  0.0974  0.3912
18930SOL    HW158231   1.891   1.494   5.576  1.8515  0.6030 -0.3372
18930SOL    HW258232   1.847   1.601   5.478  2.5447  1.5427  0.3545
18931SOL     OW58233   4.497   0.838   2.438  0.1573  0.0534  0.2848
18931SOL    HW158234   4.479   0.749   2.468 -0.1518  0.4362  1.2669
18931SOL    HW258235   4.560   0.826   2.367 -0.6375 -1.0075 -0.2785
18932SOL     OW58236   7.914   3.052  10.424  0.0609  0.6884 -0.1730
18932SOL    HW158237   7.847   3.089  10.481  0.8128  1.0514  0.5002
18932SOL    HW258238   7.913   3.108  10.347 -0.9753  0.1825 -0.5426
18933SOL     OW58239   1.371   7.032  12.242  0.2316  0.5519  0.7833
18933SOL    HW158240   1.313   7.090  12.292 -0.9161  0.9254 -0.9198
18933SOL    HW258241   1.357   7.057  12.151  0.8694 -1.3964  0.1190
18934SOL     OW58242   7.676   5.821   2.232 -0.1141  0.2685  0.0576
18934SOL    HW158243   7.720   5.876   2.168  1.6718  0.9205  1.7238
18934SOL    HW258244   7.676   5.733   2.193 -2.5563  1.2629 -2.4098
18935SOL     OW58245   0.929   5.489  11.890  0.1820 -0.6208  0.2649
18935SOL    HW158246   0.962   5.576  11.865 -0.7014 -0.4502 -0.3417
18935SOL    HW258247   1.005   5.446  11.930  0.5540  0.5432  0.8801
18936SOL     OW58248   4.954   6.329   9.030 -0.1582 -0.2151 -0.4234
18936SOL    HW158249   5.007   6.292   8.960 -2.0245 -1.3522 -1.3148
18936SOL    HW258250   5.017   6.350   9.099  1.5293 -0.6511 -1.7697
18937SOL     OW58251   6.896   5.662  10.862 -0.0947  0.3318  0.2242
18937SOL    HW158252   6.927   5.572  10.862 -0.0523  0.3430 -0.1477
18937SOL    HW258253   6.948   5.706  10.929  1.1449  0.4908 -0.8034
18938SOL     OW58254   3.657   3.110  11.128 -0.2490 -0.4987 -0.1112
18938SOL    HW158255   3.714   3.137  11.200 -0.6481  2.3716 -0.7585
18938SOL    HW258256   3.570   3.142  11.152 -0.6712 -0.7330 -1.2440
18939SOL     OW58257   4.718   5.884  12.374 -0.1018  0.0324 -0.3427
18939SOL    HW158258   4.792   5.838  12.416  0.2734 -0.7004 -1.7526
18939SOL    HW258259   4.744   5.892  12.282 -1.8384 -0.3329 -0.8916
18940SOL     OW58260   3.726   5.972   5.941 -0.0714  0.3458 -0.4016
18940SOL    HW158261   3.758   5.944   6.027  1.1174 -3.3342 -1.8687
18940SOL    HW258262   3.650   5.917   5.924  0.3875  0.1954 -2.1514
18941SOL     OW58263   3.246   1.015   3.880  0.3982 -0.0593  0.5269
18941SOL    HW158264   3.178   1.067   3.923 -0.8288 -1.4704  0.3672
18941SOL    HW258265   3.327   1.041   3.924 -0.2779  1.3538  1.0120
18942SOL     OW58266   1.702   5.162  12.057  0.2849  0.3561 -0.5391
18942SOL    HW158267   1.774   5.173  12.119  0.6263  1.1700 -1.0579
18942SOL    HW258268   1.735   5.099  11.993  0.5047  0.6449 -0.7151
18943SOL     OW58269   2.287   3.897  12.221 -0.1498 -0.0296  0.2086
18943SOL    HW158270   2.268   3.834  12.291 -2.0482  2.2586  1.9012
18943SOL    HW258271   2.202   3.922  12.186  0.5269  1.6190 -0.3960
18944SOL     OW58272   3.102   3.869   8.595  0.4405 -0.2208 -0.8039
18944SOL    HW158273   3.033   3.810   8.626  1.3403 -0.8676  0.0356
18944SOL    HW258274   3.104   3.857   8.501 -0.8140  0.0564 -0.8792
18945SOL     OW58275   1.710   3.993  11.247  0.0013 -0.8870  0.4846
18945SOL    HW158276   1.741   4.055  11.313 -0.3068 -0.9256  0.6645
18945SOL    HW258277   1.680   4.048  11.175 -1.1871 -0.7784  1.0329
18946SOL     OW58278   0.367   2.001   6.340 -0.1918 -0.0554 -0.1329
18946SOL    HW158279   0.319   1.949   6.275  0.3588  1.1263 -1.5512
18946SOL    HW258280   0.303   2.064   6.373 -0.1044  0.2876 -0.6143
18947SOL     OW58281   4.081   3.846  11.765  0.8926 -0.0312  0.6680
18947SOL    HW158282   4.149   3.903  11.730  1.3797 -1.0517 -0.1118
18947SOL    HW258283   4.050   3.891  11.844  2.0341  0.7512  0.6970
18948SOL     OW58284   4.420   3.516   9.254 -0.1275  0.2011 -0.3774
18948SOL    HW158285   4.450   3.435   9.296 -1.4942 -0.2496 -0.2191
18948SOL    HW258286   4.381   3.487   9.172 -0.9684  0.6374 -0.1420
18949SOL     OW58287   6.614   2.839   1.676 -0.4636  0.1130 -0.6010
18949SOL    HW158288   6.590   2.781   1.604  0.1551 -2.4328  1.1112
18949SOL    HW258289   6.697   2.805   1.708 -0.8701  0.9446  1.5168
18950SOL     OW58290   2.808   6.586   3.464 -0.3086  0.3872  0.0417
18950SOL    HW158291   2.874   6.650   3.437 -1.3164  0.7197 -1.7752
18950SOL    HW258292   2.849   6.501   3.450  1.2582  0.5340  3.0131
18951SOL     OW58293   2.641   1.713  10.873 -0.2042  0.0351  0.0667
18951SOL    HW158294   2.582   1.727  10.947 -0.6428  0.0923 -0.2882
18951SOL    HW258295   2.654   1.801  10.836 -0.9259 -0.1450 -0.6282
18952SOL     OW58296   6.910   7.029   2.759  0.7145 -0.1033  0.1033
18952SOL    HW158297   6.859   7.095   2.713  1.5610 -0.3510 -1.2350
18952SOL    HW258298   6.931   7.069   2.843 -0.3103  0.6089  0.0365
18953SOL     OW58299   3.277   1.714   9.259 -0.3340 -0.3450  0.0370
18953SOL    HW158300   3.249   1.749   9.175 -0.4321 -0.6943 -0.0782
18953SOL    HW258301   3.363   1.676   9.242 -0.8417 -1.4424 -0.1841
18954SOL     OW58302   2.815   0.733   0.644 -0.1516  0.5494 -0.3618
18954SOL    HW158303   2.827   0.644   0.609  1.4084  0.0977  1.1817
18954SOL    HW258304   2.895   0.779   0.620  0.3043  0.6636  1.2608
18955SOL     OW58305   4.902   0.921   4.787  0.2585 -0.5831  0.2574
18955SOL    HW158306   4.972   0.863   4.818 -1.1598 -2.4604  0.1040
18955SOL    HW258307   4.943   0.973   4.718  1.8105 -0.7773  0.9993
18956SOL     OW58308   2.603   1.825   7.364 -0.2902 -0.4896  0.3577
18956SOL    HW158309   2.582   1.762   7.296  1.5822 -2.1250  1.2079
18956SOL    HW258310   2.606   1.774   7.445  2.8009  0.2887  0.8633
18957SOL     OW58311   5.211   6.142   8.434  0.2764 -0.3328 -0.4130
18957SOL    HW158312   5.182   6.062   8.391 -0.0451  0.2020 -1.2237
18957SOL    HW258313   5.133   6.176   8.478  0.5198 -0.6919  0.3036
18958SOL     OW58314   4.627   4.150   3.186  0.1447 -0.0270 -0.1848
18958SOL    HW158315   4.607   4.057   3.196  0.2549 -0.3271 -2.3695
18958SOL    HW258316   4.554   4.185   3.135  2.0544  0.1467 -2.9990
18959SOL     OW58317   2.949   3.972  11.653  0.0952  0.3858  0.0958
18959SOL    HW158318   2.960   3.968  11.559  2.6130 -1.3055  0.3706
18959SOL    HW258319   3.019   3.917  11.688 -1.7998 -0.4775  2.8940
18960SOL     OW58320   0.833   4.664   0.129  0.2759 -0.2460 -0.2673
18960SOL    HW158321   0.878   4.600   0.183  1.4992 -0.1636 -1.1385
18960SOL    HW258322   0.848   4.634   0.039 -0.1340  0.6094 -0.6362
18961SOL     OW58323   4.718   6.540  10.788 -0.6640 -0.3171 -0.0845
18961SOL    HW158324   4.711   6.608  10.855 -0.7624  0.1075 -0.5150
18961SOL    HW258325   4.812   6.530  10.773 -0.6685  0.6255 -0.9005
18962SOL     OW58326   3.251   4.052   4.603  0.0243  0.3191 -0.2625
18962SOL    HW158327   3.224   4.139   4.572  0.5601 -0.1165 -2.1361
18962SOL    HW258328   3.345   4.048   4.582  0.1801 -0.4250  0.5376
18963SOL     OW58329   3.935   6.982   1.632  0.0924 -0.5843  0.1704
18963SOL    HW158330   3.922   7.077   1.631  2.0541 -0.2316  1.8868
18963SOL    HW258331   4.029   6.970   1.622  0.2866 -2.1441  2.7297
18964SOL     OW58332   5.447   4.803   4.936  0.7277 -0.5522 -0.3286
18964SOL    HW158333   5.460   4.745   5.011  1.4108 -0.0187 -0.0218
18964SOL    HW258334   5.452   4.891   4.973 -0.3129 -0.2907 -0.7842
18965SOL     OW58335   1.342   7.848   1.818 -0.3843  0.7761  0.5494
18965SOL    HW158336   1.412   7.829   1.882  1.6594 -1.3955 -2.0784
18965SOL    HW258337   1.364   7.935   1.785 -0.3372  1.1045  1.4054
18966SOL     OW58338   0.844   6.044   2.102 -1.0115  0.1358  0.4418
18966SOL    HW158339   0.855   6.109   2.171  0.0391  1.3328 -0.7948
18966SOL    HW258340   0.753   6.053   2.074 -0.8190  1.2391  0.1424
18967SOL     OW58341   1.179   5.508   9.670 -0.2858 -0.0578 -0.1570
18967SOL    HW158342   1.175   5.413   9.676 -0.6865 -0.0040  0.4631
18967SOL    HW258343   1.147   5.528   9.582  0.9660 -0.5614 -0.7531
18968SOL     OW58344   7.749   2.980   0.633 -0.3076 -0.1722  0.0954
18968SOL    HW158345   7.751   3.023   0.547 -1.9076 -0.2595 -0.0099
18968SOL    HW258346   7.812   3.029   0.685  2.7386 -1.7321 -1.8015
18969SOL     OW58347   3.688   2.869   8.885 -0.0273  0.1990 -0.0393
18969SOL    HW158348   3.686   2.961   8.860  0.3726 -0.1192 -1.3661
18969SOL    HW258349   3.781   2.848   8.889 -0.0409 -0.8513 -2.7842
18970SOL     OW58350   7.332   6.115   2.794 -0.1665 -0.4138 -0.2081
18970SOL    HW158351   7.360   6.046   2.733 -0.9181 -1.8370  0.9911
18970SOL    HW258352   7.256   6.154   2.753  1.3953  1.1049 -1.8351
18971SOL     OW58353   3.171   6.072   3.803  0.3823 -0.1886  0.2585
18971SOL    HW158354   3.170   6.162   3.837  1.2132  0.4116 -1.1758
18971SOL    HW258355   3.263   6.056   3.783 -0.0767 -0.3225 -2.0196
18972SOL     OW58356   2.437   3.309   2.161 -0.6375  0.1819  0.3653
18972SOL    HW158357   2.484   3.379   2.206  1.0773 -0.4891 -0.2864
18972SOL    HW258358   2.395   3.260   2.231 -0.9051  1.1766  0.9227
18973SOL     OW58359   3.768   2.616  11.686  0.4077 -0.3382  0.6998
18973SOL    HW158360   3.816   2.609  11.604 -1.0911 -0.7184 -0.1850
18973SOL    HW258361   3.739   2.527  11.704 -0.2897 -0.0566  0.9984
18974SOL     OW58362   4.570   0.309   2.277 -0.2158 -0.2284 -0.2826
18974SOL    HW158363   4.522   0.226   2.283 -0.5350 -0.2011 -1.9901
18974SOL    HW258364   4.659   0.287   2.305 -0.3316 -1.1340 -0.5705
18975SOL     OW58365   2.802   5.701   7.055 -0.1247  0.1509 -0.1513
18975SOL    HW158366   2.856   5.623   7.046  1.9708  1.4236  0.6466
18975SOL    HW258367   2.817   5.750   6.974  2.7160  2.0736  1.3688
18976SOL     OW58368   7.501   2.567   5.783  0.6622 -0.1109 -0.2471
18976SOL    HW158369   7.413   2.588   5.812  0.4863  0.4203 -1.1294
18976SOL    HW258370   7.493   2.483   5.739  0.2110  0.7841 -1.9702
18977SOL     OW58371   1.290   2.432  11.220 -0.5005  0.2484  0.0290
18977SOL    HW158372   1.286   2.402  11.311 -0.9642  1.7549  0.5374
18977SOL    HW258373   1.219   2.497  11.213  0.1670  0.8855 -1.1184
18978SOL     OW58374   2.295   5.582   8.081  0.2824 -0.5126  0.1640
18978SOL    HW158375   2.350   5.534   8.019 -3.5303 -1.5549 -2.7955
18978SOL    HW258376   2.297   5.672   8.049 -0.5499 -0.7735 -0.6681
18979SOL     OW58377   1.021   6.797  12.444  0.0410  0.2445 -0.1163
18979SOL    HW158378   1.083   6.826  12.511  0.3171 -0.2671 -0.1464
18979SOL    HW258379   0.982   6.717  12.479  1.4578 -1.0227 -1.2749
18980SOL     OW58380   0.393   0.537   1.309  0.6409  0.4237 -0.7299
18980SOL    HW158381   0.311   0.490   1.324  1.6782 -0.4573  3.4978
18980SOL    HW258382   0.366   0.628   1.295 -1.1091  0.0358 -0.1320
18981SOL     OW58383   6.473   1.784   4.199 -0.1261  0.3237  0.0182
18981SOL    HW158384   6.417   1.763   4.125 -0.0793  0.6424 -0.1107
18981SOL    HW258385   6.489   1.700   4.242 -0.7779  0.2421  0.1120
18982SOL     OW58386   4.160   2.284   7.463  0.3791  0.4951 -0.2165
18982SOL    HW158387   4.106   2.222   7.512  0.4664 -0.4958 -1.3501
18982SOL    HW258388   4.099   2.349   7.430  0.0791  0.2020 -0.2399
18983SOL     OW58389   5.785   6.474  10.869 -0.4073 -0.1395  0.7532
18983SOL    HW158390   5.861   6.435  10.913 -1.3840 -0.9007  1.8222
18983SOL    HW258391   5.764   6.551  10.922  0.6456  1.1123 -0.5447
18984SOL     OW58392   6.306   3.482   1.219 -0.6205 -0.1441 -0.4651
18984SOL    HW158393   6.347   3.535   1.287 -2.3564  0.1781  0.3935
18984SOL    HW258394   6.239   3.539   1.181 -4.1838 -2.1918  2.0395
18985SOL     OW58395   3.782   5.899   6.224 -0.2006  0.0488  0.6980
18985SOL    HW158396   3.812   5.808   6.232  1.6065  0.4743 -0.6209
18985SOL    HW258397   3.835   5.947   6.288  0.6951  0.5199 -0.3508
18986SOL     OW58398   6.705   2.904   3.775  0.0688  0.0305  0.1586
18986SOL    HW158399   6.737   2.934   3.690  3.6013 -1.9451  0.5728
18986SOL    HW258400   6.685   2.811   3.761 -1.3908  0.1919  1.0201
18987SOL     OW58401   7.131   0.384   4.763  0.3089  0.4314 -0.1303
18987SOL    HW158402   7.174   0.430   4.835 -0.8167  0.2064  0.7243
18987SOL    HW258403   7.114   0.452   4.698  2.2463  0.4526 -0.6661
18988SOL     OW58404   7.507   5.639   7.927  0.5389  0.8958  0.6243
18988SOL    HW158405   7.461   5.629   8.010  1.3053  1.6829  1.1535
18988SOL    HW258406   7.598   5.656   7.951  0.8157  0.9317 -0.3799
18989SOL     OW58407   4.055   2.834   1.773  0.6984 -0.0833 -0.5456
18989SOL    HW158408   4.103   2.780   1.836 -0.6791 -0.1048  0.5264
18989SOL    HW258409   4.096   2.920   1.778  0.9230 -0.2210  0.0053
18990SOL     OW58410   6.240   5.619   5.394 -0.2496 -0.8939  0.1741
18990SOL    HW158411   6.148   5.629   5.372 -0.8633 -0.2562  2.7032
18990SOL    HW258412   6.280   5.702   5.368 -1.1559  0.2668  2.2713
18991SOL     OW58413   4.716   7.883   9.238  0.1687  0.2887  0.0704
18991SOL    HW158414   4.669   7.890   9.155  0.7816 -0.0268 -0.3053
18991SOL    HW258415   4.796   7.834   9.217  0.2993  0.1549  0.8554
18992SOL     OW58416   0.795   2.876   8.305 -0.6380 -0.0050  0.2557
18992SOL    HW158417   0.766   2.949   8.359 -0.7008 -1.6814  2.6708
18992SOL    HW258418   0.890   2.886   8.300 -0.5886 -0.0491  1.0392
18993SOL     OW58419   7.143   7.593   8.469  0.0761  0.2442  0.2492
18993SOL    HW158420   7.060   7.577   8.513  0.4763  1.8780  1.6931
18993SOL    HW258421   7.141   7.534   8.393 -0.4995 -2.9861  2.5566
18994SOL     OW58422   1.376   4.049   9.971 -0.0560  0.0775 -0.1977
18994SOL    HW158423   1.371   4.022  10.063  1.1604  0.1947 -0.0778
18994SOL    HW258424   1.295   4.098   9.956 -0.0432  0.4846  0.9584
18995SOL     OW58425   3.953   7.222   2.499  0.4658 -0.1190 -0.0093
18995SOL    HW158426   3.868   7.196   2.534  0.5772 -1.6182 -0.7353
18995SOL    HW258427   4.010   7.231   2.576  0.1820 -1.2709  0.3592
18996SOL     OW58428   1.536   2.543   9.477 -0.1835 -0.0167 -0.3457
18996SOL    HW158429   1.519   2.589   9.395 -0.6288 -0.3191 -0.4290
18996SOL    HW258430   1.584   2.606   9.530 -1.0113  0.6514 -0.3616
18997SOL     OW58431   5.565   5.091   8.619  0.7267  0.0187  0.2832
18997SOL    HW158432   5.543   5.024   8.554 -0.6764  0.1746  0.5642
18997SOL    HW258433   5.554   5.047   8.703  0.3254  0.4518  0.4593
18998SOL     OW58434   3.195   5.729   0.373 -0.3198  0.3193 -0.2914
18998SOL    HW158435   3.143   5.672   0.318  1.8303 -0.7978 -1.2910
18998SOL    HW258436   3.167   5.710   0.463  0.0129 -2.0003 -0.6332
18999SOL     OW58437   1.194   4.641   3.932  0.0434  0.0018  0.5654
18999SOL    HW158438   1.176   4.731   3.903  0.6793  0.3769  1.3025
18999SOL    HW258439   1.250   4.651   4.009  0.9013 -1.0556  0.1057
19000SOL     OW58440   7.315   2.361   1.125  0.1558 -0.0951  0.1086
19000SOL    HW158441   7.374   2.399   1.190 -0.0620 -0.2596  0.4054
19000SOL    HW258442   7.245   2.322   1.177 -0.7289  0.9512 -0.2743
19001SOL     OW58443   4.397   6.786   9.593 -0.4597 -0.3370 -0.1006
19001SOL    HW158444   4.320   6.796   9.537  2.3162  1.9348 -4.0499
19001SOL    HW258445   4.431   6.699   9.574 -1.0144 -0.6347  0.2499
19002SOL     OW58446   6.567   5.646   0.939 -0.2529  0.0566 -0.1902
19002SOL    HW158447   6.487   5.667   0.891 -0.1453  0.0271 -0.3790
19002SOL    HW258448   6.539   5.642   1.031  0.0933  2.9279  0.1134
19003SOL     OW58449   6.260   0.932   1.679 -0.0386 -0.1057 -0.2106
19003SOL    HW158450   6.245   0.886   1.761  1.3947  0.8138  0.6135
19003SOL    HW258451   6.292   0.864   1.619 -0.1712 -0.6032  0.2730
19004SOL     OW58452   5.842   1.452   9.766 -0.2189  0.0955 -0.4074
19004SOL    HW158453   5.790   1.514   9.817 -0.3991 -0.4118  0.0271
19004SOL    HW258454   5.807   1.460   9.677 -0.2762  0.5800 -0.3432
19005SOL     OW58455   1.354   2.559   5.048 -0.9769 -0.2671 -0.0821
19005SOL    HW158456   1.427   2.542   4.988 -2.3785 -3.4591 -1.1336
19005SOL    HW258457   1.396   2.578   5.132  1.0803 -0.7515 -0.9325
19006SOL     OW58458   7.388   1.094   5.297 -0.0236  0.2630 -0.3192
19006SOL    HW158459   7.421   1.018   5.250  1.5986  0.8948 -0.2612
19006SOL    HW258460   7.400   1.167   5.237 -0.5673  0.6423  0.0243
19007SOL     OW58461   4.127   3.455   2.952  0.3739 -0.1667 -0.3009
19007SOL    HW158462   4.102   3.474   3.042  0.6750 -0.3745 -0.1717
19007SOL    HW258463   4.115   3.361   2.942  0.1701 -0.1181 -0.5336
19008SOL     OW58464   4.932   0.297  11.145  0.1150  0.1213 -0.2452
19008SOL    HW158465   4.964   0.379  11.182  1.4443 -0.3252 -0.3618
19008SOL    HW258466   5.011   0.246  11.126 -0.6861 -1.3204  0.1063
19009SOL     OW58467   4.989   3.721   4.970  0.1398 -0.2942 -0.2625
19009SOL    HW158468   4.918   3.686   4.917  0.1989 -0.7743 -0.0305
19009SOL    HW258469   4.965   3.698   5.060  0.0639  0.4659 -0.0813
19010SOL     OW58470   5.103   5.876  12.122 -0.1890 -0.0464 -0.4536
19010SOL    HW158471   5.181   5.859  12.069  0.1768 -1.6052  0.5167
19010SOL    HW258472   5.126   5.953  12.175  0.0418  0.5276 -1.3633
19011SOL     OW58473   2.039   3.931   9.709  0.6037 -0.2816 -0.2321
19011SOL    HW158474   2.035   3.951   9.615 -1.7729  1.7003  0.1852
19011SOL    HW258475   2.082   4.007   9.748  0.0947 -0.3393  0.4547
19012SOL     OW58476   7.307   2.018   9.676  0.3606 -0.9990  0.1188
19012SOL    HW158477   7.395   2.054   9.665 -0.8865  2.0353 -0.7706
19012SOL    HW258478   7.263   2.080   9.734 -1.6068 -1.6861 -0.5667
19013SOL     OW58479   7.035   6.032   1.064  0.2032  0.2377  0.2466
19013SOL    HW158480   6.975   6.080   1.007  0.8158 -0.6197 -1.1850
19013SOL    HW258481   6.993   6.033   1.150 -0.8712  1.3652 -0.2635
19014SOL     OW58482   7.442   2.931   1.832  0.7447  0.4721 -0.0150
19014SOL    HW158483   7.430   2.960   1.741 -1.1181  0.8179  0.3032
19014SOL    HW258484   7.436   2.835   1.827 -1.4650  0.5651 -0.0360
19015SOL     OW58485   0.271   2.161   9.569  0.4181  0.1202 -0.1251
19015SOL    HW158486   0.323   2.241   9.577  1.6403 -0.5436 -1.1472
19015SOL    HW258487   0.272   2.123   9.657 -1.5324  1.9800  0.8040
19016SOL     OW58488   2.745   5.644   4.487 -0.4819 -0.2671 -0.7841
19016SOL    HW158489   2.790   5.728   4.494  2.6035 -1.8349  0.5175
19016SOL    HW258490   2.660   5.658   4.528  0.0103  2.1784 -0.4610
19017SOL     OW58491   0.326   6.940   4.434 -0.0755 -0.8422 -0.0450
19017SOL    HW158492   0.262   6.998   4.392  0.8693 -0.3595 -0.8727
19017SOL    HW258493   0.351   6.985   4.514  0.2815 -0.3261 -0.4379
19018SOL     OW58494   1.929   6.051   1.898  0.2736  0.2594 -0.6548
19018SOL    HW158495   1.999   6.109   1.926  0.3350  0.1877 -0.6598
19018SOL    HW258496   1.932   6.055   1.802 -0.3643  1.0260 -0.6565
19019SOL     OW58497   1.302   5.026   5.222  0.0278  0.4933 -0.3677
19019SOL    HW158498   1.360   5.061   5.154  0.4568 -0.6948 -0.6379
19019SOL    HW258499   1.317   4.931   5.220 -0.9876  0.2974  0.4359
19020SOL     OW58500   0.019   7.280   7.542 -0.5854 -0.1041 -0.7826
19020SOL    HW158501   0.113   7.297   7.530 -0.7791  0.2966 -1.8997
19020SOL    HW258502  -0.015   7.362   7.577 -0.5844 -0.0917 -0.8095
19021SOL     OW58503   2.166   6.782   6.094 -0.2548  0.9025 -0.2315
19021SOL    HW158504   2.138   6.855   6.150 -0.1779  1.3132 -0.7202
19021SOL    HW258505   2.157   6.816   6.005  2.5991  1.3753 -0.4236
19022SOL     OW58506   5.530   1.943   4.139 -0.4289 -0.3932 -0.3234
19022SOL    HW158507   5.459   2.006   4.138 -0.1415 -0.0641 -0.2812
19022SOL    HW258508   5.543   1.923   4.232 -0.5673 -0.5724 -0.3414
19023SOL     OW58509   6.077   3.028   8.738 -0.3239  0.0599  0.1641
19023SOL    HW158510   6.070   3.119   8.712  1.4469 -0.0902 -0.9585
19023SOL    HW258511   6.086   2.980   8.656 -0.4401 -1.0459  0.7739
19024SOL     OW58512   0.588   4.475   6.271  0.1768 -0.2456 -0.5203
19024SOL    HW158513   0.513   4.534   6.275 -1.2764 -2.0669  1.2337
19024SOL    HW258514   0.550   4.387   6.271  2.2490 -1.2945  2.0598
19025SOL     OW58515   4.037   2.026  10.558  0.0960  0.4025 -0.4913
19025SOL    HW158516   3.962   2.045  10.614  0.5761  0.8009  0.0249
19025SOL    HW258517   4.082   2.111  10.548  1.7708 -0.2463  1.1003
19026SOL     OW58518   1.740   5.253   9.618  0.0575  0.4329  0.3298
19026SOL    HW158519   1.773   5.281   9.533  1.4929  0.6176  0.9235
19026SOL    HW258520   1.660   5.304   9.630  0.5573  1.4084 -0.3233
19027SOL     OW58521   2.012   4.913   8.371 -0.6545 -0.4116  0.1311
19027SOL    HW158522   1.960   4.926   8.450  0.6434 -0.3160  0.9856
19027SOL    HW258523   1.956   4.949   8.301 -1.7292 -0.2978  1.0089
19028SOL     OW58524   2.722   6.447   9.943  0.4979 -0.0520  0.5467
19028SOL    HW158525   2.777   6.494  10.005  0.5067 -0.0354  0.5261
19028SOL    HW258526   2.695   6.368   9.991  2.0050 -0.9736 -0.0572
19029SOL     OW58527   3.014   2.317   9.576  0.0856 -0.2586 -0.2672
19029SOL    HW158528   2.990   2.376   9.504  2.5127  2.8057  1.1590
19029SOL    HW258529   3.028   2.376   9.650  1.2842 -2.8677  1.7226
19030SOL     OW58530   0.350   7.414   7.503  0.1812 -0.7150  0.3139
19030SOL    HW158531   0.430   7.445   7.546 -0.5123 -1.9909  2.7331
19030SOL    HW258532   0.280   7.463   7.544 -0.3778 -0.1067 -1.2965
19031SOL     OW58533   5.457   6.364   3.261  0.0988 -0.1553 -0.0588
19031SOL    HW158534   5.529   6.407   3.215 -0.3065  0.9539  0.3283
19031SOL    HW258535   5.379   6.389   3.213 -0.2614  0.4923  0.8350
19032SOL     OW58536   5.799   5.311   9.176  0.6294  0.0906  0.2419
19032SOL    HW158537   5.807   5.283   9.085 -0.6322 -0.5613  0.3051
19032SOL    HW258538   5.868   5.376   9.187  0.5845  0.4433 -1.2801
19033SOL     OW58539   7.738   6.750   8.959 -0.0575 -0.0611 -0.7726
19033SOL    HW158540   7.798   6.695   9.009  0.0814 -0.2018 -1.0914
19033SOL    HW258541   7.710   6.695   8.886  0.3489  0.3938 -1.2874
19034SOL     OW58542   4.654   0.285  10.218 -0.3510  0.2236  0.4126
19034SOL    HW158543   4.708   0.335  10.157  0.8151 -0.4459  0.8662
19034SOL    HW258544   4.596   0.350  10.258  0.0765  0.9471 -0.1206
19035SOL     OW58545   1.209   6.290   9.581 -1.1871  0.0768 -0.2119
19035SOL    HW158546   1.140   6.224   9.588  0.9234 -2.1942  0.8991
19035SOL    HW258547   1.224   6.318   9.671 -1.0170  0.9748 -0.5103
19036SOL     OW58548   7.220   2.832   0.768 -0.0269  0.2194 -0.0984
19036SOL    HW158549   7.142   2.879   0.736 -1.2708 -0.0788  2.2495
19036SOL    HW258550   7.283   2.900   0.788 -0.3822  0.6078 -0.2888
19037SOL     OW58551   0.932   3.486   7.974 -0.3679  0.1115 -0.9805
19037SOL    HW158552   0.980   3.568   7.988  0.4621 -0.5063 -0.0448
19037SOL    HW258553   0.989   3.419   8.012 -0.2417 -1.1361 -3.2037
19038SOL     OW58554   0.136   7.912   0.284 -0.6050 -0.3414  0.2448
19038SOL    HW158555   0.071   7.977   0.256  1.3111  1.5527 -0.0314
19038SOL    HW258556   0.087   7.829   0.287 -2.3914  0.4538 -2.7009
19039SOL     OW58557   3.910   7.780  10.912 -0.8051  0.0883  0.0679
19039SOL    HW158558   3.978   7.715  10.895 -0.9187  0.3806 -1.6648
19039SOL    HW258559   3.942   7.828  10.989  0.5320 -0.3176 -0.2084
19040SOL     OW58560   2.940   1.155   5.695 -0.0516  0.0714  0.0376
19040SOL    HW158561   2.935   1.250   5.705 -0.2568  0.1447 -0.6791
19040SOL    HW258562   2.855   1.131   5.657  0.3185 -0.2883 -0.5724
19041SOL     OW58563   7.246   5.661   4.142  0.3475  0.5100 -0.5272
19041SOL    HW158564   7.156   5.644   4.169  0.2782  1.7153  0.0634
19041SOL    HW258565   7.286   5.704   4.218  1.2045  0.6477 -1.0465
19042SOL     OW58566   6.914   6.787   8.399  0.2415  0.2909 -0.0148
19042SOL    HW158567   6.854   6.822   8.333  0.7298  0.9707 -0.1062
19042SOL    HW258568   6.980   6.739   8.350 -0.3317 -0.6559  0.1008
19043SOL     OW58569   1.665   3.089  12.236 -0.1387  0.1908 -0.4430
19043SOL    HW158570   1.755   3.121  12.246  0.2984 -0.7252 -1.2797
19043SOL    HW258571   1.639   3.064  12.325  0.1931  1.0649 -0.0880
19044SOL     OW58572   5.709   0.638   5.963  0.2795 -0.0951 -0.5975
19044SOL    HW158573   5.642   0.699   5.995  0.4909  0.0276 -0.3833
19044SOL    HW258574   5.660   0.560   5.937  0.2155 -0.7738  1.3887
19045SOL     OW58575   5.975   1.490   2.078  0.3359  0.1574  0.3770
19045SOL    HW158576   6.013   1.570   2.041 -1.6640  0.3130 -1.4865
19045SOL    HW258577   5.891   1.518   2.114 -0.3925 -1.0983 -0.3028
19046SOL     OW58578   1.276   5.308   5.286 -0.6917 -0.6297 -0.7632
19046SOL    HW158579   1.306   5.221   5.312 -0.3387 -0.1762  0.3942
19046SOL    HW258580   1.315   5.322   5.199  1.0505 -0.7761 -0.0484
19047SOL     OW58581   5.802   6.807   1.228  0.2288 -0.3071 -0.0722
19047SOL    HW158582   5.774   6.719   1.203 -0.6271  0.1757 -0.8796
19047SOL    HW258583   5.783   6.813   1.321 -0.6547 -0.6454 -0.2194
19048SOL     OW58584   4.375   3.145   4.907  0.5379 -0.3179  0.0068
19048SOL    HW158585   4.393   3.196   4.986 -2.2722 -0.4932  0.8456
19048SOL    HW258586   4.297   3.185   4.870  0.0881 -2.0702 -1.0439
19049SOL     OW58587   2.442   0.460   9.818  0.0682 -0.1169  0.1933
19049SOL    HW158588   2.509   0.438   9.754 -1.4010 -2.9209 -0.5139
19049SOL    HW258589   2.368   0.492   9.766 -1.0869 -2.2907  0.3791
19050SOL     OW58590   1.536   4.789  10.309 -0.0406 -0.1732  0.6039
19050SOL    HW158591   1.523   4.850  10.382 -1.1510 -1.2918  1.4007
19050SOL    HW258592   1.450   4.750  10.295  0.4501 -0.9348 -0.4391
19051SOL     OW58593   5.377   0.947   4.913  0.0783 -0.0387  0.9881
19051SOL    HW158594   5.448   1.000   4.878 -1.1750  1.3902  0.4808
19051SOL    HW258595   5.323   1.009   4.962  0.0365 -1.3863  2.7975
19052SOL     OW58596   6.101   6.213   5.917 -0.1993 -0.2414 -0.1723
19052SOL    HW158597   6.068   6.180   6.001 -0.6113 -1.8712 -0.9406
19052SOL    HW258598   6.171   6.153   5.893 -0.3199 -0.0062 -1.1555
19053SOL     OW58599   6.233   1.802   9.534  0.3920  0.3050 -0.5029
19053SOL    HW158600   6.242   1.734   9.468  1.6567  0.6343 -0.7041
19053SOL    HW258601   6.148   1.786   9.575  0.0125 -0.4686 -1.5661
19054SOL     OW58602   1.619   5.555   9.773  0.4032 -0.4317  0.5023
19054SOL    HW158603   1.556   5.491   9.738  2.6503 -2.1412 -0.7248
19054SOL    HW258604   1.585   5.640   9.746 -0.2539 -1.4423 -2.1555
19055SOL     OW58605   3.229   2.505   4.480  0.0619 -0.2352 -0.2240
19055SOL    HW158606   3.136   2.514   4.502  0.3546  2.7093  0.2886
19055SOL    HW258607   3.274   2.517   4.564  0.9578  3.0099 -1.0258
19056SOL     OW58608   7.054   4.121  10.340  0.7538 -0.4022  0.0898
19056SOL    HW158609   7.088   4.210  10.327  0.9227 -0.4689  0.0752
19056SOL    HW258610   7.029   4.118  10.432  0.2666 -0.1721 -0.0351
19057SOL     OW58611   4.058   6.687   4.652 -0.5945 -0.2312 -0.4940
19057SOL    HW158612   4.126   6.675   4.719 -0.1289 -1.7483 -1.2000
19057SOL    HW258613   3.979   6.708   4.702 -0.2241 -1.2015  0.5452
19058SOL     OW58614   6.019   6.640   6.142 -0.0729 -0.4891 -0.1983
19058SOL    HW158615   6.110   6.626   6.169 -0.1806 -1.0197 -0.0992
19058SOL    HW258616   6.021   6.630   6.046  0.5690  2.7688 -0.6521
19059SOL     OW58617   5.199   2.582   9.982 -0.7293 -0.1938  0.6257
19059SOL    HW158618   5.125   2.523   9.990 -0.5960 -0.3813  0.4755
19059SOL    HW258619   5.276   2.525   9.981 -0.5572  0.0265  1.2010
19060SOL     OW58620   1.375   2.913  11.400 -0.3906 -0.9229  0.4719
19060SOL    HW158621   1.410   2.828  11.374  0.9680 -0.1474 -0.3733
19060SOL    HW258622   1.418   2.931  11.484 -2.4059 -2.0272  1.8390
19061SOL     OW58623   6.111   7.596   6.534  0.4428 -0.3365 -0.2100
19061SOL    HW158624   6.042   7.594   6.600 -0.2653 -2.3488 -0.9372
19061SOL    HW258625   6.172   7.527   6.561  2.2876  1.4364  0.4569
19062SOL     OW58626   1.986   6.204   7.319 -0.0829 -1.0802  0.2791
19062SOL    HW158627   1.896   6.236   7.330 -0.0144 -0.7502 -0.0981
19062SOL    HW258628   2.026   6.219   7.404  0.4132  1.3725 -0.3017
19063SOL     OW58629   7.294   2.103   4.777 -0.1913 -0.1849  0.1116
19063SOL    HW158630   7.362   2.079   4.714 -0.5173  2.5619 -1.4237
19063SOL    HW258631   7.327   2.182   4.820 -0.9396 -0.7718  1.8590
19064SOL     OW58632   4.815   4.570  10.579 -0.3562 -0.4006 -0.3308
19064SOL    HW158633   4.737   4.567  10.524 -1.3422 -0.4247  1.0376
19064SOL    HW258634   4.872   4.503  10.543 -0.7456 -0.0598 -1.6468
19065SOL     OW58635   5.151   5.678   1.317  0.1316  0.5539 -0.4163
19065SOL    HW158636   5.245   5.691   1.330 -0.0814  3.0313 -0.7863
19065SOL    HW258637   5.142   5.656   1.225  0.4318 -1.2311 -0.0459
19066SOL     OW58638   7.319   3.461   0.181 -0.4042 -0.7760 -0.6648
19066SOL    HW158639   7.397   3.420   0.143 -0.5160 -1.1859 -0.4638
19066SOL    HW258640   7.339   3.554   0.183  0.7278 -1.0143  0.8450
19067SOL     OW58641   7.556   7.900   9.707  0.4461  0.0401 -0.2965
19067SOL    HW158642   7.582   7.973   9.651  0.1223 -0.6079 -1.2958
19067SOL    HW258643   7.618   7.903   9.780 -1.1300  2.9500  1.1314
19068SOL     OW58644   4.276   0.154   5.253  0.2976 -0.0189 -0.4336
19068SOL    HW158645   4.350   0.094   5.252  0.5731  0.3258 -1.5168
19068SOL    HW258646   4.234   0.143   5.168 -0.3979  0.4096 -0.1598
19069SOL     OW58647   1.662   6.828   8.710 -1.1266  0.1816 -0.1483
19069SOL    HW158648   1.637   6.744   8.748 -0.6805 -0.0486 -0.3631
19069SOL    HW258649   1.683   6.883   8.786 -1.9939  0.2958  0.0230
19070SOL     OW58650   4.889   0.256   2.524 -0.8222  0.5506 -0.4635
19070SOL    HW158651   4.850   0.344   2.524 -0.9136  0.5150 -0.8302
19070SOL    HW258652   4.831   0.205   2.467 -1.8422 -0.2488  1.2084
19071SOL     OW58653   2.083   4.870   4.634 -0.2173 -0.1699 -0.4739
19071SOL    HW158654   2.052   4.951   4.593 -0.5407 -0.3545 -0.6035
19071SOL    HW258655   2.153   4.898   4.693 -1.1082  0.3534  0.3695
19072SOL     OW58656   7.099   4.942   1.418 -0.6786  0.5273  0.2307
19072SOL    HW158657   7.135   4.867   1.465  0.1938  0.7196 -0.1103
19072SOL    HW258658   7.089   4.912   1.328 -2.2159  0.2042  0.4794
19073SOL     OW58659   6.451   6.852   3.628  0.0543  0.2574 -0.4900
19073SOL    HW158660   6.420   6.893   3.547  1.0310  2.1274  0.0196
19073SOL    HW258661   6.471   6.926   3.686  0.1719 -1.0142  1.1692
19074SOL     OW58662   2.186   5.577   4.406 -0.0748 -0.0861  0.1675
19074SOL    HW158663   2.246   5.508   4.434 -0.9891 -1.0577 -0.2072
19074SOL    HW258664   2.151   5.614   4.487 -0.4118 -0.8249  0.3673
19075SOL     OW58665   6.678   2.137   7.864  0.0197  0.3593  0.3947
19075SOL    HW158666   6.757   2.084   7.857 -0.1202  0.0205  1.2054
19075SOL    HW258667   6.649   2.123   7.954 -2.3369 -1.5003 -0.5392
19076SOL     OW58668   1.570   1.958   4.117  0.1011 -0.1379 -0.8451
19076SOL    HW158669   1.563   2.019   4.043  0.9410  1.4631  0.3184
19076SOL    HW258670   1.485   1.915   4.121 -0.7225  1.3573 -1.4186
19077SOL     OW58671   6.262   5.436  11.964  0.3030 -0.0283  0.2436
19077SOL    HW158672   6.178   5.390  11.967  1.4450 -2.5580 -2.2440
19077SOL    HW258673   6.253   5.507  12.027 -4.0853  0.5057 -0.6928
19078SOL     OW58674   1.445   1.474   4.116 -0.8003 -0.0310 -0.0492
19078SOL    HW158675   1.512   1.520   4.167 -1.1254  0.5370 -0.1278
19078SOL    HW258676   1.486   1.391   4.093  1.0221  1.4016 -2.5399
19079SOL     OW58677   1.966   7.711   3.930 -0.6772 -0.0094 -0.2114
19079SOL    HW158678   1.965   7.640   3.994 -1.3821 -0.4654 -0.7140
19079SOL    HW258679   1.876   7.717   3.899 -0.4981  0.7017 -0.6213
19080SOL     OW58680   7.918   2.206   3.017  0.2552  0.0315  0.2892
19080SOL    HW158681   7.884   2.236   2.933  0.5164  2.1559  0.8984
19080SOL    HW258682   8.010   2.184   3.000  0.4156  0.8366  0.0926
19081SOL     OW58683   1.753   6.484   0.876  0.9318  0.5786  0.0579
19081SOL    HW158684   1.743   6.549   0.946  1.2001 -1.0515  1.6978
19081SOL    HW258685   1.663   6.456   0.856  0.9522 -1.5277  2.4047
19082SOL     OW58686   7.328   6.458   1.573 -0.1496 -0.3238 -0.1642
19082SOL    HW158687   7.265   6.490   1.637 -0.4961  0.4541 -0.8719
19082SOL    HW258688   7.413   6.477   1.611 -0.2457 -2.7137  1.4823
19083SOL     OW58689   7.046   3.906   3.675  0.2679  0.3378  0.5293
19083SOL    HW158690   7.055   3.814   3.699 -1.0766 -0.5019 -1.8139
19083SOL    HW258691   7.083   3.912   3.587  1.4029  2.3281  1.0840
19084SOL     OW58692   1.496   1.485   4.899 -0.3205 -0.2365 -0.2865
19084SOL    HW158693   1.425   1.469   4.962 -1.5443  1.3867 -1.1620
19084SOL    HW258694   1.456   1.467   4.814  0.4327  0.3329 -0.7682
19085SOL     OW58695   3.235   3.376   1.359 -0.1804  0.2352 -0.1593
19085SOL    HW158696   3.156   3.332   1.391  0.4521 -1.1639 -0.4762
19085SOL    HW258697   3.266   3.427   1.434  1.6629 -3.4876  1.8874
19086SOL     OW58698   0.859   4.925   8.204 -0.0245  0.0063 -0.2112
19086SOL    HW158699   0.818   4.874   8.274  1.3634  0.5730  1.0896
19086SOL    HW258700   0.787   4.970   8.161 -0.9725 -0.7803  0.4942
19087SOL     OW58701   4.305   0.813   6.134  0.5493 -0.3860  0.3743
19087SOL    HW158702   4.240   0.853   6.076  0.6502 -1.1129 -0.2715
19087SOL    HW258703   4.329   0.732   6.089  1.3879 -0.4643  0.9493
19088SOL     OW58704   3.603   4.404   5.752  0.2858  0.2243  0.5922
19088SOL    HW158705   3.631   4.377   5.840  1.1973  0.6414  0.4388
19088SOL    HW258706   3.585   4.321   5.707 -2.7421  0.0229  1.9302
19089SOL     OW58707   6.575   4.090   7.044  0.2124 -0.0770 -0.3256
19089SOL    HW158708   6.591   4.031   7.117  1.2828  0.6135  0.0162
19089SOL    HW258709   6.662   4.123   7.020 -0.3538  1.3143 -0.5422
19090SOL     OW58710   2.686   0.539   8.489 -0.5299  0.9104  0.3990
19090SOL    HW158711   2.635   0.468   8.450 -2.2762  1.9400  0.7413
19090SOL    HW258712   2.764   0.495   8.524 -0.7113 -0.5644 -0.9158
19091SOL     OW58713   6.301   5.214   0.816 -0.0802  0.4960 -0.7512
19091SOL    HW158714   6.333   5.304   0.806 -0.6209  0.7039 -0.6358
19091SOL    HW258715   6.361   5.173   0.878 -0.0444  0.8834 -0.5325
19092SOL     OW58716   0.986   0.093   3.635 -0.6097 -0.6971 -0.6941
19092SOL    HW158717   0.911   0.110   3.577 -0.6622  1.6211 -0.0466
19092SOL    HW258718   1.038   0.174   3.631 -0.7009 -0.3545  2.6017
19093SOL     OW58719   7.298   1.447   7.611  0.3877  0.1105 -0.3807
19093SOL    HW158720   7.290   1.465   7.517  0.6493  0.7921 -0.2799
19093SOL    HW258721   7.227   1.497   7.651 -0.8936 -1.6328 -0.3599
19094SOL     OW58722   6.189   7.869  11.016 -0.4134 -0.1842 -0.0400
19094SOL    HW158723   6.263   7.922  10.985 -0.0554 -1.0536 -0.7562
19094SOL    HW258724   6.230   7.789  11.050 -1.0114 -0.6130 -0.3061
19095SOL     OW58725   5.740   4.665  11.064  0.0898  0.0595  0.2240
19095SOL    HW158726   5.795   4.598  11.104 -1.7460 -2.0187 -0.5055
19095SOL    HW258727   5.683   4.694  11.135  1.9458  2.1873  0.9705
19096SOL     OW58728   6.975   4.349   0.606 -0.1490 -0.2442 -1.1709
19096SOL    HW158729   6.984   4.383   0.517 -0.1172  0.7655 -0.8031
19096SOL    HW258730   7.063   4.322   0.631  0.7685  3.2657 -0.0203
19097SOL     OW58731   2.874   6.946   3.196  0.0312 -0.5240  0.2078
19097SOL    HW158732   2.796   6.983   3.238 -0.8085 -1.9126 -0.0566
19097SOL    HW258733   2.933   7.020   3.186 -0.3338  0.1419  2.4690
19098SOL     OW58734   1.972   6.124   1.634  0.6371  0.2110  0.1860
19098SOL    HW158735   2.056   6.153   1.599  0.2293  2.0749  0.6506
19098SOL    HW258736   1.907   6.161   1.574  0.0898  0.1671  0.7339
19099SOL     OW58737   2.109   7.589   7.074  0.3670 -0.5289 -0.0376
19099SOL    HW158738   2.194   7.581   7.031 -0.1211  0.7797 -1.3168
19099SOL    HW258739   2.127   7.644   7.151  0.5326  0.5979 -0.8497
19100SOL     OW58740   5.068   4.098   1.116 -0.4868  0.1486 -0.2929
19100SOL    HW158741   5.153   4.110   1.073 -0.4706 -0.9687 -0.6026
19100SOL    HW258742   5.063   4.171   1.179  0.3378  0.6928 -0.8262
19101SOL     OW58743   5.370   1.986  11.371  0.4575  0.2856  0.1957
19101SOL    HW158744   5.433   2.046  11.331  0.3427 -0.4797 -1.1895
19101SOL    HW258745   5.319   1.952  11.298 -0.1572 -0.7304  1.0623
19102SOL     OW58746   4.774   3.735   2.114 -0.0653 -0.2197 -0.7517
19102SOL    HW158747   4.784   3.674   2.187  2.8444 -1.1007 -1.7270
19102SOL    HW258748   4.782   3.821   2.154  1.0000 -0.6698  0.0683
19103SOL     OW58749   1.008   2.838  10.616 -0.2827  0.2183  0.0632
19103SOL    HW158750   0.953   2.817  10.691  1.0298 -1.3121  0.6544
19103SOL    HW258751   1.094   2.856  10.654  0.4356 -0.6999 -1.0706
19104SOL     OW58752   5.956   6.951  11.464 -0.5987 -0.1045 -0.1385
19104SOL    HW158753   5.952   7.014  11.536 -0.2656 -0.0969 -0.1233
19104SOL    HW258754   5.992   7.001  11.391  1.0932 -0.6229  0.2826
19105SOL     OW58755   2.156   5.305   9.259  0.7076 -0.5802 -0.2820
19105SOL    HW158756   2.139   5.272   9.348 -0.2510 -1.3216 -0.7189
19105SOL    HW258757   2.247   5.283   9.242  0.7920 -0.7729  0.3846
19106SOL     OW58758   2.627   0.212  10.128 -0.3544 -0.3378 -0.5986
19106SOL    HW158759   2.629   0.126  10.087 -0.2562  0.5911 -2.6630
19106SOL    HW258760   2.541   0.247  10.105 -1.7423 -1.0210  2.8873
19107SOL     OW58761   3.620   7.891  11.588  0.0828  0.5012 -0.0422
19107SOL    HW158762   3.612   7.846  11.673  2.0124  1.0438  0.4678
19107SOL    HW258763   3.535   7.877  11.546 -0.2646 -1.4404  1.1566
19108SOL     OW58764   4.568   6.901  11.262  0.0089  0.3411 -0.3884
19108SOL    HW158765   4.543   6.905  11.169 -0.9673  2.0147 -0.0915
19108SOL    HW258766   4.502   6.845  11.302 -3.0292  3.9171  0.1985
19109SOL     OW58767   6.664   5.541  11.677 -0.2984  0.0645  0.1242
19109SOL    HW158768   6.605   5.554  11.752 -2.9508 -2.8862 -1.1848
19109SOL    HW258769   6.621   5.586  11.605 -0.0681 -0.6510 -0.4723
19110SOL     OW58770   6.300   4.417   3.573 -0.6043  0.0799 -0.1189
19110SOL    HW158771   6.204   4.421   3.571 -0.6470 -0.1936  0.9891
19110SOL    HW258772   6.322   4.404   3.665  0.5028  0.0908 -0.3669
19111SOL     OW58773   4.200   7.397   3.441 -0.4346 -0.3420 -0.3978
19111SOL    HW158774   4.207   7.364   3.531  0.3059 -0.3464 -0.4475
19111SOL    HW258775   4.167   7.322   3.391  0.1516 -0.6661 -0.3087
19112SOL     OW58776   5.856   3.628  11.084  0.6553  0.5951  0.1021
19112SOL    HW158777   5.951   3.624  11.095  0.3262 -0.9583  3.8921
19112SOL    HW258778   5.828   3.698  11.144 -0.6731  0.1885 -0.0144
19113SOL     OW58779   0.191   5.918   4.223 -0.1952 -0.1346 -0.3503
19113SOL    HW158780   0.169   5.871   4.142 -0.3299 -0.2334 -0.2573
19113SOL    HW258781   0.106   5.929   4.267 -0.2066  0.4809 -0.5267
19114SOL     OW58782   6.353   0.260   7.693  0.3120  0.2836  0.7787
19114SOL    HW158783   6.291   0.333   7.695 -1.2549 -0.9809  0.1024
19114SOL    HW258784   6.334   0.210   7.772 -0.0905 -0.5229  0.1918
19115SOL     OW58785   6.266   0.727   7.550 -0.5359  0.2496  0.0228
19115SOL    HW158786   6.232   0.794   7.609 -0.0642 -0.5498  1.2398
19115SOL    HW258787   6.313   0.666   7.607 -1.0696 -1.2022 -1.0145
19116SOL     OW58788   2.125   3.254   6.063 -0.1474 -0.1953 -0.1315
19116SOL    HW158789   2.221   3.257   6.065 -0.1267  1.3921 -1.4494
19116SOL    HW258790   2.105   3.174   6.014  0.5524  0.2364 -1.1592
19117SOL     OW58791   0.803   5.210   2.892 -0.0049  0.2171 -0.0162
19117SOL    HW158792   0.722   5.192   2.939  1.0303 -1.8293  1.0784
19117SOL    HW258793   0.834   5.293   2.929  0.2882 -0.8569  2.2564
19118SOL     OW58794   3.409   0.525   2.721  0.0461  0.3228  0.0449
19118SOL    HW158795   3.492   0.560   2.754  1.2684 -0.7113 -1.7532
19118SOL    HW258796   3.361   0.499   2.799  1.2025  1.3730  1.1574
19119SOL     OW58797   4.655   3.876  10.417 -0.1344 -0.1973 -0.1206
19119SOL    HW158798   4.691   3.883  10.506 -2.0976 -0.3897  0.7592
19119SOL    HW258799   4.718   3.921  10.362 -0.0695  2.2184  1.7482
19120SOL     OW58800   3.020   5.773   9.437 -0.2633  0.2001  0.5052
19120SOL    HW158801   3.002   5.682   9.413  0.2563  0.0345  0.7265
19120SOL    HW258802   3.112   5.773   9.461 -0.2907  0.7669  0.6156
19121SOL     OW58803   6.442   7.143   5.576 -0.2417  0.1466  0.1482
19121SOL    HW158804   6.463   7.089   5.500  1.5390 -0.0090  0.7088
19121SOL    HW258805   6.353   7.174   5.560 -0.9847 -2.1965 -0.6257
19122SOL     OW58806   1.903   2.683   2.027  0.2058  0.0964  0.3563
19122SOL    HW158807   1.907   2.635   1.944  1.1293  0.8904 -0.0747
19122SOL    HW258808   1.916   2.616   2.094 -3.6726 -1.1415  0.1358
19123SOL     OW58809   6.384   6.328   5.436  0.0018  0.5587 -0.1769
19123SOL    HW158810   6.407   6.283   5.517 -2.1006 -1.7737 -0.7423
19123SOL    HW258811   6.445   6.294   5.371  0.4744  1.0073  0.0218
19124SOL     OW58812   5.522   1.414   4.034  1.1554  0.3505 -0.4522
19124SOL    HW158813   5.430   1.419   4.060  1.1021 -1.0114 -0.2851
19124SOL    HW258814   5.528   1.467   3.955  0.1793  0.2995 -0.5688
19125SOL     OW58815   6.779   4.425  11.697  0.3761  0.2598  0.0436
19125SOL    HW158816   6.796   4.411  11.790  1.4665 -0.4571 -0.2456
19125SOL    HW258817   6.822   4.351  11.653  0.0776  0.7106 -1.0413
19126SOL     OW58818   7.047   6.461  10.798  0.1025  0.1217 -0.2915
19126SOL    HW158819   7.116   6.487  10.737  0.1340  0.7623  0.0054
19126SOL    HW258820   7.091   6.454  10.883  0.0601 -0.7637 -0.3318
19127SOL     OW58821   5.480   4.478   6.920  0.0844  0.1908  0.1150
19127SOL    HW158822   5.515   4.476   7.009 -0.1951 -0.9541  0.2166
19127SOL    HW258823   5.389   4.506   6.930  0.3283  1.0137  0.0802
19128SOL     OW58824   0.950   6.714   3.606  0.4808 -0.0876 -0.3953
19128SOL    HW158825   0.912   6.735   3.691 -0.6290 -0.0734 -0.8698
19128SOL    HW258826   0.885   6.746   3.543  0.4429 -1.6575 -1.2008
19129SOL     OW58827   5.203   1.007   0.954 -0.0038  0.1890 -0.2047
19129SOL    HW158828   5.262   0.960   0.895  1.3227  0.0761  1.1394
19129SOL    HW258829   5.145   0.940   0.989 -0.9977  0.3068 -1.5772
19130SOL     OW58830   0.319   3.664   3.080 -0.7414 -0.0081 -0.3479
19130SOL    HW158831   0.344   3.621   2.998 -0.4983 -0.5428 -0.0042
19130SOL    HW258832   0.274   3.595   3.130 -0.1410  0.0641  0.3089
19131SOL     OW58833   2.687   1.121   7.835 -0.3637 -0.5402  0.4820
19131SOL    HW158834   2.640   1.083   7.760 -0.7028  0.1781  0.3222
19131SOL    HW258835   2.755   1.057   7.855 -1.4867 -1.6840  0.8046
19132SOL     OW58836   2.029   6.554   6.875 -0.2902 -0.9133  0.2407
19132SOL    HW158837   2.112   6.599   6.887 -1.1589  1.1594 -0.9710
19132SOL    HW258838   2.053   6.462   6.866  1.8488 -0.4090  0.1728
19133SOL     OW58839   4.150   3.545   5.994  0.4383 -0.0765  0.1841
19133SOL    HW158840   4.150   3.568   5.901  1.6513  1.2323  0.4872
19133SOL    HW258841   4.087   3.473   6.000  1.2746 -1.0558 -1.8512
19134SOL     OW58842   0.796   0.817   1.335 -0.3562  0.0255  0.1756
19134SOL    HW158843   0.831   0.762   1.265 -1.0929  0.0280 -0.2063
19134SOL    HW258844   0.831   0.778   1.415 -0.3967 -0.6554 -0.1285
19135SOL     OW58845   5.827   3.469   8.731 -0.0183 -0.1417  0.0395
19135SOL    HW158846   5.771   3.410   8.682 -0.2307  0.4073 -0.3916
19135SOL    HW258847   5.826   3.551   8.681  1.4196 -0.2109 -0.1593
19136SOL     OW58848   7.887   3.554   9.393  0.3214 -0.2526 -0.0050
19136SOL    HW158849   7.840   3.526   9.472  0.8089 -1.0061  0.0276
19136SOL    HW258850   7.843   3.635   9.366 -0.2160 -0.2980  0.7104
19137SOL     OW58851   6.381   6.546  10.454 -0.4380 -0.4352  0.4168
19137SOL    HW158852   6.357   6.455  10.465  0.0747 -0.6945 -0.4932
19137SOL    HW258853   6.474   6.550  10.477 -0.8938  0.2588  2.3832
19138SOL     OW58854   6.632   3.757   5.188  0.5425 -0.3508 -0.4988
19138SOL    HW158855   6.571   3.720   5.252  1.3776  0.7564  1.0148
19138SOL    HW258856   6.599   3.728   5.103 -1.1874 -1.0434  0.3641
19139SOL     OW58857   0.906   2.369   6.549  0.9637 -0.4860 -0.4528
19139SOL    HW158858   0.864   2.302   6.494  1.3103  0.1582 -1.5312
19139SOL    HW258859   0.964   2.416   6.490  0.3026  1.1558  0.1289
19140SOL     OW58860   7.836   1.835   9.849 -0.2301  0.1061 -0.2444
19140SOL    HW158861   7.846   1.930   9.859  0.9089  0.0313 -0.5633
19140SOL    HW258862   7.922   1.805   9.818 -0.1201 -1.2202  1.2131
19141SOL     OW58863   7.429   4.496   0.844  0.0570  0.0547 -0.1501
19141SOL    HW158864   7.436   4.568   0.906 -0.1661  0.0341 -0.0971
19141SOL    HW258865   7.366   4.526   0.779 -0.0381 -0.0919 -0.1266
19142SOL     OW58866   1.452   7.012   9.887 -0.0183  0.1609 -0.2489
19142SOL    HW158867   1.410   7.095   9.908 -0.5166 -0.0987 -0.2041
19142SOL    HW258868   1.380   6.954   9.863  0.2726 -0.4032  0.2050
19143SOL     OW58869   1.977   3.374   6.727 -0.3701  0.6206  0.1884
19143SOL    HW158870   1.973   3.462   6.690 -0.9913  1.3331  1.8651
19143SOL    HW258871   1.981   3.388   6.821  0.2846 -1.1451  0.4491
19144SOL     OW58872   2.734   7.813   2.433  0.1927 -0.3558 -0.3227
19144SOL    HW158873   2.788   7.764   2.371 -0.1399  0.0056 -0.9190
19144SOL    HW258874   2.659   7.756   2.449  0.3797 -0.5384 -0.0820
19145SOL     OW58875   0.368   5.724   9.200  0.0021  0.1219  0.0514
19145SOL    HW158876   0.273   5.717   9.198  0.0286 -0.3708  0.4452
19145SOL    HW258877   0.386   5.793   9.262 -0.0890 -0.0040  0.2176
19146SOL     OW58878   0.886   5.680  10.294  0.0816 -0.0114  0.9818
19146SOL    HW158879   0.822   5.640  10.353 -0.7318  1.4059  1.1035
19146SOL    HW258880   0.881   5.774  10.313  0.3682  0.3981 -0.7846
19147SOL     OW58881   6.924   3.995  12.405 -0.8987 -0.1133 -0.2875
19147SOL    HW158882   6.925   4.043  12.322  4.0619  0.8204 -0.0259
19147SOL    HW258883   6.936   3.904  12.380  1.3541  0.2435 -0.7351
19148SOL     OW58884   3.411   6.872   4.421 -0.1894 -0.5131 -0.3946
19148SOL    HW158885   3.339   6.884   4.483 -0.7679  0.1726 -1.1839
19148SOL    HW258886   3.393   6.787   4.381 -0.7250 -0.2285 -0.7795
19149SOL     OW58887   2.234   6.679   3.712 -0.1790 -0.0434  0.0952
19149SOL    HW158888   2.286   6.599   3.718  0.6080  0.5047  1.0045
19149SOL    HW258889   2.264   6.720   3.631  0.1617 -0.1773  0.1486
19150SOL     OW58890   5.170   4.266   3.398 -0.4564  0.3562 -0.0975
19150SOL    HW158891   5.202   4.273   3.309  0.4364  1.9043  0.2937
19150SOL    HW258892   5.247   4.280   3.453 -1.4004  2.2673  0.8726
19151SOL     OW58893   1.397   5.413   1.103 -0.1337  0.1896  0.0608
19151SOL    HW158894   1.341   5.480   1.063  0.1672  0.8603  0.7326
19151SOL    HW258895   1.339   5.364   1.161 -0.4873 -0.5367 -0.8882
19152SOL     OW58896   3.773   2.040   0.565  0.0979  0.1597 -0.2318
19152SOL    HW158897   3.815   2.110   0.515  0.6247  0.6215  0.8156
19152SOL    HW258898   3.843   2.004   0.619 -0.4127 -0.4551  0.0358
19153SOL     OW58899   0.783   6.280   2.582  0.1680  0.8770  0.1130
19153SOL    HW158900   0.794   6.207   2.522  0.5899  0.7673  0.3160
19153SOL    HW258901   0.846   6.263   2.652  0.9715  1.9213 -0.3109
19154SOL     OW58902   6.212   7.645   7.581 -0.4927 -0.0398 -0.1161
19154SOL    HW158903   6.225   7.619   7.490  1.0366 -2.6357  0.7337
19154SOL    HW258904   6.280   7.710   7.597 -0.2465 -0.1639 -0.6226
19155SOL     OW58905   6.165   6.940   0.125 -0.6949 -0.3433  0.1527
19155SOL    HW158906   6.180   6.931   0.219 -3.1562  2.8257  1.0406
19155SOL    HW258907   6.235   6.998   0.094 -2.0855  1.9114  1.0022
19156SOL     OW58908   1.868   2.998   9.843 -0.2831  0.3477 -0.2805
19156SOL    HW158909   1.796   3.061   9.847 -0.6439 -0.0710 -0.1023
19156SOL    HW258910   1.937   3.037   9.897  0.0854  1.3205 -1.4101
19157SOL     OW58911   1.853   1.100   0.329  0.0607  0.1634 -0.2867
19157SOL    HW158912   1.863   1.029   0.266 -2.4844 -1.1593  0.6499
19157SOL    HW258913   1.893   1.176   0.287  0.7184 -1.2493 -2.3564
19158SOL     OW58914   1.757   2.221  11.729 -0.0203 -0.1937  0.4508
19158SOL    HW158915   1.730   2.291  11.789 -1.4827 -0.2930 -0.0446
19158SOL    HW258916   1.721   2.141  11.767 -0.9849 -0.2532 -0.5295
19159SOL     OW58917   5.261   0.876  10.469  0.7452 -0.5753 -0.3295
19159SOL    HW158918   5.213   0.863  10.551  2.1556 -1.4823  0.3806
19159SOL    HW258919   5.228   0.959  10.435  0.1629 -0.1591  1.1722
19160SOL     OW58920   3.049   5.170   9.002 -0.1842 -0.4029  0.5040
19160SOL    HW158921   3.115   5.154   9.069  0.2768 -0.8649 -0.0466
19160SOL    HW258922   2.965   5.160   9.047  0.1008 -2.1462  0.7095
19161SOL     OW58923   4.497   2.192   4.021 -0.3008  0.1498 -0.2520
19161SOL    HW158924   4.406   2.175   4.045  0.0159 -0.8987  0.2348
19161SOL    HW258925   4.543   2.112   4.042  1.3841  1.7253  2.6730
19162SOL     OW58926   3.324   3.294   9.640 -0.0814  0.1429  0.3083
19162SOL    HW158927   3.314   3.389   9.634  0.8413  0.2883  0.8798
19162SOL    HW258928   3.396   3.274   9.581 -0.5205 -0.2590 -0.0984
19163SOL     OW58929   3.073   6.440   4.159  0.2814  0.0881  0.4446
19163SOL    HW158930   3.117   6.515   4.200 -2.0917  0.5433  2.4120
19163SOL    HW258931   2.980   6.459   4.170 -0.3932 -2.3307 -0.6046
19164SOL     OW58932   1.806   3.354   0.927  0.2781  0.6496 -0.2585
19164SOL    HW158933   1.799   3.434   0.874  2.1150  0.0421 -1.5365
19164SOL    HW258934   1.851   3.292   0.869  2.3265 -0.0942  1.9760
19165SOL     OW58935   0.405   4.943   4.352 -0.3531 -0.2905 -0.4581
19165SOL    HW158936   0.475   4.881   4.329  0.5803 -0.5929  2.7236
19165SOL    HW258937   0.443   5.029   4.333  0.1103 -0.5361 -0.6734
19166SOL     OW58938   3.396   6.206  11.692  0.3437 -0.1017 -0.5341
19166SOL    HW158939   3.357   6.132  11.646  1.0733 -0.9474  0.1786
19166SOL    HW258940   3.341   6.281  11.667 -1.3441 -1.1312 -0.0657
19167SOL     OW58941   4.865   1.824   6.762  0.1077  0.1205  0.5301
19167SOL    HW158942   4.835   1.841   6.673  1.5509 -0.8886 -0.1947
19167SOL    HW258943   4.787   1.836   6.817 -0.8213  0.6942 -0.8608
19168SOL     OW58944   3.230   6.088  11.510  0.4113  0.4174 -0.1430
19168SOL    HW158945   3.161   6.056  11.452  1.0994 -1.5114  0.0309
19168SOL    HW258946   3.309   6.043  11.480  1.1017  0.6692  1.2235
19169SOL     OW58947   1.114   5.597   7.390  0.1856  0.3626 -0.5490
19169SOL    HW158948   1.094   5.624   7.300  1.5308 -0.6613 -1.1977
19169SOL    HW258949   1.140   5.505   7.382 -2.0329 -0.5378  1.2489
19170SOL     OW58950   1.775   4.721   1.711 -0.5223 -0.5801 -0.1186
19170SOL    HW158951   1.690   4.681   1.729 -0.4387 -0.4494  0.5845
19170SOL    HW258952   1.834   4.684   1.776 -0.4732  0.7739  0.6456
19171SOL     OW58953   6.594   0.113   2.157 -0.1547  0.7403 -0.7165
19171SOL    HW158954   6.540   0.128   2.080  0.3015  3.5086 -0.6145
19171SOL    HW258955   6.667   0.174   2.148 -0.5391  1.8531  2.2624
19172SOL     OW58956   4.627   6.778   9.972  0.1599  0.9803 -0.2274
19172SOL    HW158957   4.677   6.828  10.035 -1.2804  2.1750  0.0312
19172SOL    HW258958   4.679   6.780   9.892  0.0543  3.0980 -0.2839
19173SOL     OW58959   1.987   2.663   4.661 -0.5764 -0.0682 -0.0859
19173SOL    HW158960   2.080   2.641   4.660 -0.6884 -0.8898  1.8133
19173SOL    HW258961   1.943   2.580   4.679 -1.5579  0.5466  0.4398
19174SOL     OW58962   5.593   2.960   5.336  0.1703  0.2474 -0.3749
19174SOL    HW158963   5.607   2.919   5.422  1.0230  1.7744  0.2492
19174SOL    HW258964   5.665   2.927   5.282  0.4170  0.3260 -0.1007
19175SOL     OW58965   2.198   4.055   0.758 -0.0981 -0.4489 -0.3478
19175SOL    HW158966   2.232   3.997   0.690  0.2284 -1.3952  0.6044
19175SOL    HW258967   2.161   3.997   0.823  1.6102  0.3151  1.3933
19176SOL     OW58968   6.276   2.874  10.276 -0.1474 -0.4528  0.2726
19176SOL    HW158969   6.264   2.793  10.225  2.4891 -0.2196 -0.8948
19176SOL    HW258970   6.370   2.879  10.291 -0.0495  2.9651 -0.7021
19177SOL     OW58971   7.544   0.630   5.464  0.2138  0.0427  0.3514
19177SOL    HW158972   7.631   0.656   5.433 -0.2796  1.2959 -0.0457
19177SOL    HW258973   7.492   0.710   5.458 -0.8179 -0.5480  1.1445
19178SOL     OW58974   0.356   5.673   1.804 -0.0600  0.0998 -0.7150
19178SOL    HW158975   0.375   5.619   1.881 -0.4805  0.3583 -0.4268
19178SOL    HW258976   0.281   5.727   1.830 -0.0072  0.4130 -1.1996
19179SOL     OW58977   5.180   1.234   0.015  0.1666 -0.1337 -0.1108
19179SOL    HW158978   5.268   1.273   0.023 -0.4190  1.1132  0.6153
19179SOL    HW258979   5.170   1.215  -0.078 -0.0891  2.9482 -0.8124
19180SOL     OW58980   6.288   3.247  11.975  0.1751  0.2354  0.7556
19180SOL    HW158981   6.360   3.183  11.974 -0.5579 -0.6214 -1.0182
19180SOL    HW258982   6.305   3.300  12.053  1.8946 -0.8839  1.2100
19181SOL     OW58983   1.928   7.425   0.785 -0.6092 -0.0403 -0.7819
19181SOL    HW158984   1.905   7.421   0.877  1.0942 -1.0154 -0.3616
19181SOL    HW258985   1.928   7.519   0.764  0.0039  0.2595  0.4828
19182SOL     OW58986   1.918   2.375   8.052  0.3318  0.0883 -0.4621
19182SOL    HW158987   1.997   2.329   8.082  0.6150  0.8399 -0.0369
19182SOL    HW258988   1.951   2.453   8.008 -0.1806  0.6217  0.0748
19183SOL     OW58989   4.103   1.124   7.770  0.1764  0.0950 -0.8757
19183SOL    HW158990   4.150   1.119   7.854  1.7164 -0.2139 -1.7203
19183SOL    HW258991   4.156   1.072   7.710 -1.8827 -1.2578 -1.6325
19184SOL     OW58992   4.486   3.935   0.952  0.2491 -0.6309 -0.1369
19184SOL    HW158993   4.399   3.900   0.933  0.4570 -1.5785  0.5820
19184SOL    HW258994   4.475   4.030   0.945 -1.0799 -0.6687  0.8414
19185SOL     OW58995   4.652   0.279   1.703  0.3250  0.2997 -0.1794
19185SOL    HW158996   4.699   0.334   1.765 -1.9583 -0.6133  2.5619
19185SOL    HW258997   4.701   0.197   1.700 -0.5649 -0.3839  2.0810
19186SOL     OW58998   2.554   0.538   5.765 -0.8529  0.1861  0.3564
19186SOL    HW158999   2.504   0.554   5.845  0.2295 -1.4366  1.4175
19186SOL    HW259000   2.645   0.549   5.791 -0.3636 -2.2405 -0.1284
19187SOL     OW59001   1.258   0.669   6.776 -0.0514 -0.0895 -0.6159
19187SOL    HW159002   1.309   0.594   6.746  0.3127 -0.8661  1.7595
19187SOL    HW259003   1.297   0.693   6.860 -2.1568  0.7317  0.2005
19188SOL     OW59004   7.426   4.455  10.949  0.0277 -0.2814  0.1161
19188SOL    HW159005   7.384   4.448  10.863 -0.5431  0.2266  0.3460
19188SOL    HW259006   7.465   4.368  10.963 -1.6505 -1.0620  0.2371
19189SOL     OW59007   5.655   7.908   8.308 -0.3825  0.4051 -0.1941
19189SOL    HW159008   5.580   7.925   8.364 -1.4150 -1.3645 -0.9408
19189SOL    HW259009   5.637   7.956   8.227 -0.4084  0.4546 -0.1589
19190SOL     OW59010   2.475   4.269   8.469 -0.0623  0.0835  0.4367
19190SOL    HW159011   2.546   4.332   8.479  0.2543 -0.0660 -0.7199
19190SOL    HW259012   2.442   4.284   8.381  0.1391 -1.4754  0.0640
19191SOL     OW59013   3.539   7.734   4.811 -0.6970  0.5920  0.3118
19191SOL    HW159014   3.545   7.776   4.724  0.5195  2.1657  1.0937
19191SOL    HW259015   3.569   7.802   4.872 -0.6393 -0.7879  1.8812
19192SOL     OW59016   3.153   0.142   6.955 -0.8110  0.3116  0.5019
19192SOL    HW159017   3.077   0.093   6.986 -1.2554  0.5392 -0.2154
19192SOL    HW259018   3.141   0.149   6.861  0.5719 -0.4429  0.2419
19193SOL     OW59019   1.206   3.266   3.840  0.4063  0.1223 -0.0686
19193SOL    HW159020   1.124   3.223   3.861  0.9948 -0.8366  0.3240
19193SOL    HW259021   1.186   3.360   3.846 -0.7964 -0.0831 -0.5710
19194SOL     OW59022   5.849   4.437   4.744 -0.0213 -0.3653  0.2822
19194SOL    HW159023   5.886   4.501   4.805 -1.0178  1.6512 -1.0936
19194SOL    HW259024   5.887   4.462   4.659 -0.4407 -1.6352 -0.2870
19195SOL     OW59025   5.547   0.299   0.578  0.0707 -0.2470  0.4333
19195SOL    HW159026   5.559   0.228   0.642  0.1350 -0.9318 -0.3246
19195SOL    HW259027   5.626   0.351   0.584 -0.0033 -0.2001  1.0473
19196SOL     OW59028   7.251   4.792  10.644  0.3092  1.0132 -0.1356
19196SOL    HW159029   7.193   4.717  10.646  0.7994  0.6328  0.8718
19196SOL    HW259030   7.333   4.760  10.682  0.3997  2.1489  0.6867
19197SOL     OW59031   5.461   0.190  10.824  0.4793  0.0750 -0.4783
19197SOL    HW159032   5.409   0.115  10.792  0.3955 -0.2794  0.4616
19197SOL    HW259033   5.477   0.170  10.916  0.6670  1.1063 -0.2815
19198SOL     OW59034   6.565   4.798   1.241  0.2112 -0.1044  0.4141
19198SOL    HW159035   6.613   4.730   1.287  0.7387 -0.7407 -1.0378
19198SOL    HW259036   6.604   4.801   1.154 -1.2159  0.5767 -0.2397
19199SOL     OW59037   3.683   4.869   3.379  0.2526  0.0067  0.2080
19199SOL    HW159038   3.604   4.833   3.339  0.0021 -0.1708  0.8547
19199SOL    HW259039   3.721   4.925   3.311 -0.4517  0.1352 -0.0872
19200SOL     OW59040   2.156   4.705   5.966 -0.3372 -0.1736 -0.5111
19200SOL    HW159041   2.081   4.763   5.979  0.3910  0.3477  1.9361
19200SOL    HW259042   2.147   4.638   6.034  0.8481 -0.6905 -0.8306
19201SOL     OW59043   6.077   3.495   1.616 -0.5203  0.5921 -0.0261
19201SOL    HW159044   5.995   3.487   1.567 -1.2148 -0.6876  1.2930
19201SOL    HW259045   6.072   3.582   1.656 -1.0141  0.6987 -0.3039
19202SOL     OW59046   3.502   6.588   5.433 -0.0307  0.4445 -0.1769
19202SOL    HW159047   3.503   6.632   5.347  0.0534  1.2778  0.2367
19202SOL    HW259048   3.530   6.656   5.494 -0.2427 -0.1036  0.5344
19203SOL     OW59049   6.084   6.122   0.920  0.2292  0.7186 -0.1201
19203SOL    HW159050   6.175   6.123   0.949 -0.5303 -0.5700  2.6836
19203SOL    HW259051   6.049   6.207   0.945  0.4511  0.8907 -0.4003
19204SOL     OW59052   6.466   6.142   7.458 -0.0672 -0.4826 -0.0678
19204SOL    HW159053   6.397   6.075   7.453  0.2402 -0.8176  0.1944
19204SOL    HW259054   6.548   6.093   7.452  0.1685  0.0611 -2.4610
19205SOL     OW59055   2.973   6.019   0.567  0.7763 -0.0868  0.1824
19205SOL    HW159056   3.019   6.072   0.502  0.6181 -2.5584 -2.1335
19205SOL    HW259057   3.034   6.011   0.640  2.8630 -0.7710 -1.5388
19206SOL     OW59058   5.268   0.478   8.587  0.0238 -0.3303 -0.3323
19206SOL    HW159059   5.199   0.542   8.603  0.0994 -0.3332  0.0309
19206SOL    HW259060   5.339   0.504   8.647  0.6157  0.0924 -1.2056
19207SOL     OW59061   0.025   3.639   8.572 -0.5642 -0.4364  0.5628
19207SOL    HW159062  -0.070   3.627   8.575 -0.7011  0.4691  0.2636
19207SOL    HW259063   0.037   3.734   8.576  0.2317 -0.3959 -1.4645
19208SOL     OW59064   0.133   7.917  12.311  0.0746  0.0625 -0.0806
19208SOL    HW159065   0.083   7.850  12.264  2.0912 -0.8519 -1.0638
19208SOL    HW259066   0.119   7.997  12.261 -0.6354 -0.0914 -0.1457
19209SOL     OW59067   6.126   2.078   3.035 -0.0642 -0.0278 -0.0645
19209SOL    HW159068   6.217   2.096   3.058  0.1228 -0.0931 -0.7235
19209SOL    HW259069   6.106   2.141   2.966  0.4308 -1.9046 -2.0452
19210SOL     OW59070   3.851   6.295   9.215  0.5497 -0.2319 -0.3257
19210SOL    HW159071   3.918   6.348   9.171  0.1815 -1.6507 -2.7301
19210SOL    HW259072   3.866   6.206   9.185 -1.8342 -0.7546 -0.1971
19211SOL     OW59073   6.539   7.673   2.415  0.3530  0.1843  0.1096
19211SOL    HW159074   6.578   7.688   2.501  1.3206  2.1385 -0.6279
19211SOL    HW259075   6.524   7.760   2.380  0.2395 -0.5787 -1.8378
19212SOL     OW59076   0.030   4.807   7.963  0.4607  0.1899 -0.6603
19212SOL    HW159077   0.016   4.780   8.054  2.8018 -1.4989 -0.7056
19212SOL    HW259078  -0.035   4.758   7.914 -0.4472  0.6731  0.0249
19213SOL     OW59079   4.755   0.190   9.335 -0.4797 -0.2877 -0.4177
19213SOL    HW159080   4.725   0.106   9.302 -0.2635 -1.0513  1.2140
19213SOL    HW259081   4.843   0.201   9.298  0.2847 -1.7349  0.8782
19214SOL     OW59082   4.044   1.493   8.504 -0.5175 -0.3636 -0.2584
19214SOL    HW159083   4.006   1.528   8.585  0.0745 -0.7101  0.1854
19214SOL    HW259084   4.015   1.402   8.502  0.2278 -0.6235  0.0684
19215SOL     OW59085   6.293   4.278   4.317 -0.2188  0.6522 -0.4513
19215SOL    HW159086   6.380   4.309   4.345  0.1779 -0.2601 -0.6396
19215SOL    HW259087   6.310   4.194   4.274 -1.6523 -1.9256  3.5406
19216SOL     OW59088   2.979   5.348   4.281 -0.1302  0.3997  0.1228
19216SOL    HW159089   3.006   5.438   4.303 -0.4635  0.4133  0.4881
19216SOL    HW259090   3.052   5.313   4.231  0.2134  0.7104  0.4032
19217SOL     OW59091   7.391   2.882   5.956  0.3260  0.4166  0.2219
19217SOL    HW159092   7.334   2.815   5.918  0.9529 -0.5496  0.9402
19217SOL    HW259093   7.343   2.915   6.033  0.4296  0.1005  0.4229
19218SOL     OW59094   0.018   6.594  11.547  0.3735 -0.2765  0.0867
19218SOL    HW159095  -0.067   6.635  11.567 -0.1469 -0.5614 -1.4192
19218SOL    HW259096  -0.002   6.532  11.477  1.7586 -0.6981  0.0523
19219SOL     OW59097   6.612   5.685  10.802  0.5960  0.2654  0.1554
19219SOL    HW159098   6.600   5.621  10.732 -1.5851 -1.1132  1.6786
19219SOL    HW259099   6.693   5.659  10.845  0.7687 -0.2579 -0.4722
19220SOL     OW59100   4.204   3.633  10.453 -0.2020  0.5636 -0.1510
19220SOL    HW159101   4.176   3.675  10.534 -0.8313 -1.1408  0.5720
19220SOL    HW259102   4.255   3.700  10.407  0.2318  1.5570  1.6717
19221SOL     OW59103   7.565   0.344   9.914 -0.1638  0.4221  0.2108
19221SOL    HW159104   7.526   0.334   9.827 -0.6957  0.8671  0.3959
19221SOL    HW259105   7.551   0.259   9.956  1.5884 -0.3897 -0.7152
19222SOL     OW59106   0.454   4.498   2.327  0.1008  0.1046 -0.7152
19222SOL    HW159107   0.548   4.501   2.310  0.4718 -2.5039  0.3424
19222SOL    HW259108   0.442   4.551   2.406  1.0104 -0.9852  0.1842
19223SOL     OW59109   7.808   1.107   3.712  0.4682 -0.2957  0.0673
19223SOL    HW159110   7.778   1.034   3.765 -1.8235  1.5819  1.5538
19223SOL    HW259111   7.879   1.146   3.763 -0.7505  0.6288  1.1131
19224SOL     OW59112   5.154   2.734   9.752  0.0585 -0.5348  0.0484
19224SOL    HW159113   5.136   2.676   9.826  0.4084 -1.3454 -0.4891
19224SOL    HW259114   5.247   2.755   9.760 -0.0833  0.0038  0.2794
19225SOL     OW59115   0.815   4.446  11.642 -0.1523 -0.0612  0.1045
19225SOL    HW159116   0.807   4.537  11.671  1.5970 -0.4492  1.9620
19225SOL    HW259117   0.731   4.407  11.664 -0.0505  0.5088  1.5842
19226SOL     OW59118   4.854   1.774   9.426 -0.5188 -0.2478  0.1001
19226SOL    HW159119   4.874   1.867   9.413  0.5355 -0.5433 -0.4711
19226SOL    HW259120   4.884   1.732   9.346 -0.4904 -1.1646  0.5808
19227SOL     OW59121   7.403   3.552   3.429  0.3399  0.4120 -0.0507
19227SOL    HW159122   7.461   3.477   3.443  0.3498  0.6801  1.4268
19227SOL    HW259123   7.386   3.552   3.334  1.7905 -0.3709 -0.3266
19228SOL     OW59124   2.176   2.931   8.660  0.5327  0.0931 -0.0936
19228SOL    HW159125   2.129   2.883   8.592 -0.3477  0.3442  0.3205
19228SOL    HW259126   2.113   2.996   8.692  0.1423 -1.3526  2.3692
19229SOL     OW59127   6.910   5.114   0.213  0.3479 -0.2202 -0.1616
19229SOL    HW159128   7.004   5.130   0.203  0.1118  0.2751 -2.0818
19229SOL    HW259129   6.893   5.037   0.158 -0.6088  0.6849 -1.1868
19230SOL     OW59130   0.167   2.214   3.440 -0.0864  0.2358 -0.1053
19230SOL    HW159131   0.229   2.208   3.367  0.1432  0.6069  0.0521
19230SOL    HW259132   0.081   2.204   3.400  0.0476  0.2592 -0.4024
19231SOL     OW59133   7.340   7.827   0.969  0.2829  0.5092  0.1602
19231SOL    HW159134   7.382   7.896   1.020  0.5306  1.4669 -1.2578
19231SOL    HW259135   7.392   7.748   0.987  1.1328  1.1101  0.3990
19232SOL     OW59136   4.665   4.795  11.947 -0.3380 -0.3826 -0.3002
19232SOL    HW159137   4.613   4.725  11.987 -0.0754  0.2037  1.1195
19232SOL    HW259138   4.619   4.876  11.970  0.0127  0.0005 -0.9029
19233SOL     OW59139   2.758   5.416   3.704  0.3872 -0.4323  0.0918
19233SOL    HW159140   2.767   5.494   3.758 -0.3227 -0.1847 -0.1399
19233SOL    HW259141   2.671   5.423   3.665 -0.1904 -1.9469  1.0198
19234SOL     OW59142   0.665   0.668  10.563  0.0078 -0.0635 -0.1219
19234SOL    HW159143   0.746   0.698  10.523  0.5561  2.3885  2.4533
19234SOL    HW259144   0.682   0.577  10.589  1.8840  0.3438  0.1911
19235SOL     OW59145   0.742   1.058   0.962  0.7278  0.4036  0.1482
19235SOL    HW159146   0.704   0.995   0.901  0.1905  1.2842 -0.4311
19235SOL    HW259147   0.833   1.029   0.973  0.7186  0.0099 -0.7568
19236SOL     OW59148   2.460   0.857   1.251  0.5712  0.3992 -0.2679
19236SOL    HW159149   2.533   0.872   1.190  0.8829 -2.2861 -0.7184
19236SOL    HW259150   2.400   0.801   1.202 -1.1415  1.3955  0.5994
19237SOL     OW59151   1.155   5.698  10.543  0.3184  0.1185  0.4681
19237SOL    HW159152   1.175   5.791  10.548 -1.0723  0.3944  1.8034
19237SOL    HW259153   1.142   5.681  10.449  1.6710  0.9946  0.1027
19238SOL     OW59154   1.538   3.340   0.046  0.5830  0.1444  0.0531
19238SOL    HW159155   1.573   3.325  -0.041  0.1205 -0.6650 -0.0005
19238SOL    HW259156   1.563   3.262   0.096  1.2599  0.8122  0.7852
19239SOL     OW59157   7.453   5.034   6.562  0.3239  0.4670 -0.1411
19239SOL    HW159158   7.521   4.993   6.508 -0.4955 -1.3625  0.1092
19239SOL    HW259159   7.385   5.059   6.499  0.6371  1.0457 -0.2518
19240SOL     OW59160   7.175   0.286   1.848 -0.0237  0.3270  0.1845
19240SOL    HW159161   7.138   0.198   1.860  3.1645 -1.0867  0.6667
19240SOL    HW259162   7.139   0.316   1.765 -1.0737 -1.5135 -0.0755
19241SOL     OW59163   2.666   2.183  12.053 -0.3209  0.2406  0.2062
19241SOL    HW159164   2.674   2.163  11.960 -2.2240 -0.1995  0.0924
19241SOL    HW259165   2.598   2.123  12.085 -0.6503  1.2752  1.5743
19242SOL     OW59166   0.875   6.570   5.501  0.1198 -0.2371 -0.0784
19242SOL    HW159167   0.843   6.570   5.411  0.1628  1.2931 -0.1144
19242SOL    HW259168   0.943   6.637   5.503 -0.9205  0.8533  1.4256
19243SOL     OW59169   7.330   7.672   2.220 -0.3062 -0.3473  0.3525
19243SOL    HW159170   7.411   7.658   2.268 -0.2682  0.7936  0.6524
19243SOL    HW259171   7.311   7.587   2.181 -0.8515 -1.6376  3.1387
19244SOL     OW59172   1.207   1.577   2.616  0.0839 -0.4858 -0.0609
19244SOL    HW159173   1.126   1.566   2.566 -0.4608  1.9207  0.1621
19244SOL    HW259174   1.177   1.608   2.702  1.2528  1.2579 -0.2477
19245SOL     OW59175   1.127   4.523   5.115  0.8206  0.5308  0.5289
19245SOL    HW159176   1.153   4.544   5.205 -0.2584  0.4499  0.8678
19245SOL    HW259177   1.039   4.487   5.123  1.6504 -1.8475 -0.2994
19246SOL     OW59178   7.747   3.544   4.750 -0.6938 -0.1715 -0.5888
19246SOL    HW159179   7.836   3.575   4.767 -1.2051  1.4707 -0.7480
19246SOL    HW259180   7.731   3.565   4.658 -1.3381 -0.2058 -0.4882
19247SOL     OW59181   3.901   4.220   4.159  0.0931  0.6725 -0.4052
19247SOL    HW159182   3.958   4.235   4.234  1.1001 -1.3886 -0.6920
19247SOL    HW259183   3.828   4.169   4.194  1.4313 -1.8208 -1.0581
19248SOL     OW59184   1.431   1.854   6.833  0.6903 -0.3195  0.0068
19248SOL    HW159185   1.444   1.823   6.923 -0.8916 -0.6078  0.1709
19248SOL    HW259186   1.484   1.933   6.827  0.4727 -0.0497  1.3469
19249SOL     OW59187   6.612   6.816   3.954 -0.5644  0.2123  0.2247
19249SOL    HW159188   6.587   6.902   3.919  2.3853  1.0252 -0.1494
19249SOL    HW259189   6.589   6.820   4.046 -2.5015  0.5236 -0.2345
19250SOL     OW59190   5.615   0.910   3.951  0.1777 -0.3133 -0.5766
19250SOL    HW159191   5.657   0.903   3.865 -0.7542 -1.0003 -0.9893
19250SOL    HW259192   5.636   0.999   3.980  1.1743 -0.3404 -1.1522
19251SOL     OW59193   5.955   7.058   0.719 -0.0657  0.1126  0.8369
19251SOL    HW159194   5.959   7.154   0.715  0.9256  0.0619 -2.2939
19251SOL    HW259195   5.880   7.040   0.775 -1.9721  2.8200 -0.5728
19252SOL     OW59196   7.592   1.840   1.162  0.3657 -0.5659 -0.3590
19252SOL    HW159197   7.666   1.780   1.165 -0.3465 -1.4483  0.4974
19252SOL    HW259198   7.599   1.891   1.243 -0.6346 -1.5320  0.3704
19253SOL     OW59199   2.327   1.598   3.743 -0.4726 -0.2717  0.3561
19253SOL    HW159200   2.414   1.624   3.713 -1.0513  1.9936  0.5110
19253SOL    HW259201   2.268   1.626   3.673 -1.2006 -0.8134  0.7395
19254SOL     OW59202   6.598   2.946   0.663  0.0413  0.4163  0.1442
19254SOL    HW159203   6.567   2.994   0.586 -0.0266  1.6537  0.9062
19254SOL    HW259204   6.668   3.001   0.699  1.4017 -1.0923 -0.1072
19255SOL     OW59205   7.176   6.592   3.743 -0.0232 -0.2909 -0.0019
19255SOL    HW159206   7.202   6.605   3.652  2.7223  0.4417  0.7923
19255SOL    HW259207   7.094   6.641   3.751  2.0267  3.7229 -1.0244
19256SOL     OW59208   0.028   6.526   8.191 -0.0861 -0.0523  0.2261
19256SOL    HW159209  -0.060   6.562   8.205 -0.3318 -0.7428  0.5521
19256SOL    HW259210   0.028   6.445   8.242  0.2386 -0.7930 -0.9074
19257SOL     OW59211   0.980   5.793   7.523  0.4036  0.2615  0.4957
19257SOL    HW159212   1.019   5.710   7.496 -1.5655 -0.4952 -0.1883
19257SOL    HW259213   1.012   5.856   7.459 -0.8492 -0.6838 -1.1273
19258SOL     OW59214   2.904   6.189   8.267 -0.3465  0.2952  0.2914
19258SOL    HW159215   2.953   6.121   8.313  0.8475  1.2629  0.4906
19258SOL    HW259216   2.954   6.269   8.281  0.4694  0.5834 -3.1701
19259SOL     OW59217   2.872   2.364  12.107  0.3523 -0.1193 -0.2294
19259SOL    HW159218   2.802   2.301  12.122 -0.1782  0.6529  0.6629
19259SOL    HW259219   2.952   2.311  12.102 -0.2570 -0.9944 -1.0791
19260SOL     OW59220   4.085   4.777   3.984 -0.2176  0.3589 -0.2257
19260SOL    HW159221   4.145   4.829   4.037 -1.5331  0.3251  1.4111
19260SOL    HW259222   4.077   4.825   3.902  3.2775 -0.5048 -1.2494
19261SOL     OW59223   0.134   0.115   0.778  0.2807 -0.0961  0.4208
19261SOL    HW159224   0.041   0.137   0.772  0.5294  1.1538  0.7821
19261SOL    HW259225   0.164   0.112   0.688  0.1898  0.9119  0.3479
19262SOL     OW59226   6.937   5.298   3.275  0.4344 -0.4128 -0.1041
19262SOL    HW159227   6.939   5.315   3.181 -0.9244  1.0352  0.0880
19262SOL    HW259228   6.873   5.227   3.284  0.3541 -0.3610 -0.2542
19263SOL     OW59229   5.779   4.303  11.453 -0.5857  0.5965 -0.2835
19263SOL    HW159230   5.759   4.379  11.508 -1.3140 -1.1299  2.0061
19263SOL    HW259231   5.700   4.249  11.457  0.5745 -1.1997 -0.1465
19264SOL     OW59232   0.063   6.640   8.894 -0.8932  0.4835  0.0942
19264SOL    HW159233   0.138   6.698   8.900 -0.9084  0.3832  1.4628
19264SOL    HW259234   0.031   6.632   8.984 -1.2160 -1.2078 -0.1380
19265SOL     OW59235   2.195   7.942   3.546  0.2963  0.2812  0.7304
19265SOL    HW159236   2.185   7.953   3.451 -0.1154  0.2495  0.7675
19265SOL    HW259237   2.126   7.997   3.584  1.3902  1.4786  1.0612
19266SOL     OW59238   0.989   4.030   4.151  0.3160 -0.0324 -0.0963
19266SOL    HW159239   0.968   3.969   4.221  1.7327  0.7805  1.0887
19266SOL    HW259240   0.910   4.085   4.143 -0.3378 -0.9439 -0.0546
19267SOL     OW59241   4.220   4.572  10.332  0.1389 -0.0807 -0.7927
19267SOL    HW159242   4.229   4.515  10.408  0.1220 -0.2137 -0.8902
19267SOL    HW259243   4.160   4.525  10.274 -2.2741  1.3548  0.4046
19268SOL     OW59244   3.144   1.118  10.240 -0.2155 -0.5866 -0.3109
19268SOL    HW159245   3.204   1.156  10.304 -0.1876 -0.2923 -0.5107
19268SOL    HW259246   3.191   1.122  10.157 -0.9704  0.7961 -0.7064
19269SOL     OW59247   6.026   1.454   3.486 -0.2557  0.6777 -0.4884
19269SOL    HW159248   6.099   1.516   3.477 -0.2194  0.5532 -1.1825
19269SOL    HW259249   6.003   1.433   3.395 -0.3231 -0.2506 -0.2634
19270SOL     OW59250   6.851   0.004   4.640 -0.1302 -0.0955 -0.3948
19270SOL    HW159251   6.821   0.062   4.570  2.0003  0.0744 -1.2409
19270SOL    HW259252   6.883   0.063   4.708 -2.8329 -0.2401  1.1319
19271SOL     OW59253   4.528   0.508   3.970  0.3123 -0.2224 -0.1760
19271SOL    HW159254   4.522   0.435   4.032  0.8549 -1.1695 -1.2010
19271SOL    HW259255   4.568   0.579   4.021 -0.7907 -0.4224  1.0052
19272SOL     OW59256   1.285   1.173   0.967 -0.0943  0.0605  0.2611
19272SOL    HW159257   1.205   1.122   0.974  0.9013 -1.5897  0.2471
19272SOL    HW259258   1.343   1.136   1.035  1.0033  0.5024 -0.4097
19273SOL     OW59259   0.252   4.260   7.666 -0.1945  0.5794  0.1263
19273SOL    HW159260   0.339   4.289   7.694 -0.6741  1.7610  0.4680
19273SOL    HW259261   0.228   4.322   7.596 -0.4964 -0.1385 -0.4130
19274SOL     OW59262   2.324   7.895   6.896  0.7834 -0.0036  0.8714
19274SOL    HW159263   2.329   7.799   6.900 -0.4223 -0.0884  0.5095
19274SOL    HW259264   2.248   7.918   6.949  0.0677  0.6286 -0.3806
19275SOL     OW59265   2.905   3.354   3.138  0.2446  0.2706  0.1044
19275SOL    HW159266   2.996   3.359   3.107 -0.3977  0.7151 -1.8664
19275SOL    HW259267   2.870   3.275   3.098  0.0992 -0.6135  1.9066
19276SOL     OW59268   2.826   4.738   8.100  0.6252 -0.3368  0.0879
19276SOL    HW159269   2.872   4.818   8.075  3.3571 -1.7870 -0.0281
19276SOL    HW259270   2.884   4.668   8.069 -1.6826 -2.3654  0.1135
19277SOL     OW59271   4.096   6.552   4.973 -0.9532  0.3917  0.1851
19277SOL    HW159272   4.051   6.503   4.905 -0.9996  0.4234  0.1924
19277SOL    HW259273   4.189   6.530   4.962 -0.9945  0.1578  0.3093
19278SOL     OW59274   1.234   6.357  11.867  0.1149  0.2088  0.8762
19278SOL    HW159275   1.237   6.381  11.959  1.1301  0.1402  0.8807
19278SOL    HW259276   1.201   6.435  11.822  0.0538  0.4012  1.2555
19279SOL     OW59277   6.016   0.529   3.742 -0.6895 -0.0793 -0.0079
19279SOL    HW159278   5.964   0.604   3.770  0.1519  0.7641 -0.6624
19279SOL    HW259279   5.959   0.482   3.681 -0.8653  0.5836 -0.3645
19280SOL     OW59280   5.507   6.896   0.586 -0.7023 -0.3052  0.3939
19280SOL    HW159281   5.568   6.824   0.568 -1.3650 -0.8090  0.1459
19280SOL    HW259282   5.485   6.930   0.499 -0.3720  0.2226  0.5118
19281SOL     OW59283   4.730   3.202   9.081 -0.6027  0.3981 -0.4462
19281SOL    HW159284   4.751   3.294   9.064 -0.9219  0.7205  0.8094
19281SOL    HW259285   4.634   3.199   9.079 -0.7218  0.6387  1.9505
19282SOL     OW59286   7.143   7.360   8.284 -0.0288 -0.2839  0.1735
19282SOL    HW159287   7.062   7.321   8.251 -0.3650 -1.4542  2.2030
19282SOL    HW259288   7.192   7.384   8.206 -2.0503 -0.1238 -1.1139
19283SOL     OW59289   3.068   7.674   0.869 -0.2859  0.2306  0.7247
19283SOL    HW159290   2.992   7.679   0.927  0.1574 -1.1226  1.4514
19283SOL    HW259291   3.056   7.591   0.822 -0.5573  1.2213 -1.0313
19284SOL     OW59292   2.706   7.292   5.803 -0.6897  0.5608 -0.2253
19284SOL    HW159293   2.793   7.254   5.802 -0.7102  0.5076  0.0308
19284SOL    HW259294   2.719   7.384   5.781 -0.3497  1.0004  1.6489
19285SOL     OW59295   0.710   0.836   0.098 -0.6414  0.1700 -0.0032
19285SOL    HW159296   0.714   0.884   0.015 -0.0567  1.1002  0.5505
19285SOL    HW259297   0.752   0.894   0.162 -0.5716 -0.7737  0.8331
19286SOL     OW59298   3.966   7.146   5.195  0.4695  0.5702  0.2002
19286SOL    HW159299   3.906   7.142   5.121  0.3728 -0.2862  0.3174
19286SOL    HW259300   3.920   7.200   5.260  0.0005  0.2609  0.1321
19287SOL     OW59301   3.799   2.279   0.998  0.0576  0.6516 -0.2305
19287SOL    HW159302   3.709   2.295   0.968 -0.5505 -0.1842  1.0845
19287SOL    HW259303   3.809   2.184   0.994  0.4176  0.6343  0.9064
19288SOL     OW59304   0.635   3.623   5.384  0.0077 -0.7099  0.2910
19288SOL    HW159305   0.661   3.665   5.466  1.1617  0.7658 -0.7730
19288SOL    HW259306   0.712   3.631   5.327 -0.6477 -1.9951 -0.8386
19289SOL     OW59307   4.171   3.215   9.089  0.3367 -0.2268 -0.3733
19289SOL    HW159308   4.091   3.263   9.110  0.7123  0.0517  0.4801
19289SOL    HW259309   4.142   3.125   9.076 -0.1365 -0.0990 -0.2268
19290SOL     OW59310   1.593   0.801   1.895 -0.2859 -0.3229 -0.0359
19290SOL    HW159311   1.555   0.864   1.956 -3.3632 -0.0541 -2.0246
19290SOL    HW259312   1.520   0.775   1.838  2.3567 -0.2817 -3.8359
19291SOL     OW59313   1.380   6.133  11.766 -0.2176 -0.0458  0.3689
19291SOL    HW159314   1.429   6.109  11.845  1.1724  0.9038 -0.1577
19291SOL    HW259315   1.312   6.192  11.797 -0.4120 -0.5928  1.0009
19292SOL     OW59316   4.189   7.932   4.942  0.5561  0.0353 -0.1664
19292SOL    HW159317   4.225   7.844   4.950 -2.1396 -1.2120 -0.6871
19292SOL    HW259318   4.230   7.968   4.863  1.9573 -0.5719  0.2533
19293SOL     OW59319   5.815   2.382   5.175 -0.7794  0.1154 -0.7940
19293SOL    HW159320   5.821   2.366   5.081 -0.8130  1.2765 -1.0120
19293SOL    HW259321   5.726   2.415   5.188 -0.7620 -0.0017 -0.3636
19294SOL     OW59322   3.183   7.336  10.865  0.1698 -0.2688  0.2878
19294SOL    HW159323   3.131   7.401  10.913  0.6121  0.9765 -0.8493
19294SOL    HW259324   3.243   7.300  10.930  1.0225  1.6565  0.6440
19295SOL     OW59325   2.448   3.081   0.431  0.0407 -0.0011 -0.0713
19295SOL    HW159326   2.430   3.171   0.405 -1.8857  0.0076  1.1920
19295SOL    HW259327   2.472   3.086   0.523  1.7659 -0.6165 -0.4374
19296SOL     OW59328   1.521   6.819  12.307  0.3606  0.2457  0.2541
19296SOL    HW159329   1.460   6.775  12.366  2.1482  0.1385  2.1485
19296SOL    HW259330   1.468   6.881  12.258 -1.1313  0.8359  2.4895
19297SOL     OW59331   0.452   1.157   9.635  0.4470 -0.4783  0.4450
19297SOL    HW159332   0.414   1.228   9.583 -1.8978 -1.6042  0.5148
19297SOL    HW259333   0.420   1.077   9.594 -0.1261 -1.4359  2.6169
19298SOL     OW59334   2.751   6.903   3.963 -0.2881 -0.4129 -0.7468
19298SOL    HW159335   2.792   6.897   4.050 -0.7837 -0.9029 -0.5469
19298SOL    HW259336   2.662   6.933   3.980 -0.3217 -0.2965 -1.1104
19299SOL     OW59337   7.058   2.089   2.521  0.6886 -0.2063 -0.1657
19299SOL    HW159338   7.053   2.143   2.600 -3.2350  1.9503 -1.6575
19299SOL    HW259339   7.058   1.999   2.554  1.9555  0.5981  2.2756
19300SOL     OW59340   3.231   2.307   5.775 -0.4856 -0.1657  0.1742
19300SOL    HW159341   3.171   2.339   5.708 -0.4811 -0.2690  0.1217
19300SOL    HW259342   3.190   2.227   5.808 -1.1248  0.5484  1.1750
19301SOL     OW59343   6.395   3.514   8.052 -0.1859 -0.4005  0.2851
19301SOL    HW159344   6.459   3.533   7.984  1.1708 -1.7723  1.0966
19301SOL    HW259345   6.377   3.599   8.093 -0.1453  0.2513 -0.9952
19302SOL     OW59346   6.904   7.321   3.004  0.0087 -0.4159 -0.4649
19302SOL    HW159347   6.926   7.380   2.933  0.0605  0.1082 -0.0252
19302SOL    HW259348   6.985   7.311   3.054 -0.6595  1.4847  1.1294
19303SOL     OW59349   1.282   3.272   8.393  0.3359 -0.6036 -0.0265
19303SOL    HW159350   1.214   3.238   8.451  0.0901  0.8214  0.5863
19303SOL    HW259351   1.240   3.345   8.347  2.0228  1.9641  2.1715
19304SOL     OW59352   4.661   3.072   6.512  0.0997 -0.1192 -0.3943
19304SOL    HW159353   4.713   3.135   6.462  1.8983 -0.6886  0.6361
19304SOL    HW259354   4.605   3.029   6.447  2.2714 -0.7650 -1.9587
19305SOL     OW59355   5.002   5.570   1.512 -0.2424  0.1184 -0.4810
19305SOL    HW159356   5.051   5.618   1.445  0.7504 -0.8470 -0.4827
19305SOL    HW259357   4.916   5.612   1.514  0.4000  1.5120 -0.8712
19306SOL     OW59358   4.809   1.228   3.336 -0.6460 -0.0261 -0.4733
19306SOL    HW159359   4.783   1.306   3.384  0.8062  1.1919 -1.5401
19306SOL    HW259360   4.900   1.214   3.361 -1.2089 -2.1562  0.6231
19307SOL     OW59361   4.945   2.112  10.592  0.0620  0.5669 -0.4928
19307SOL    HW159362   4.852   2.120  10.570  0.3689  0.8139 -1.7695
19307SOL    HW259363   4.991   2.146  10.516  1.2327 -1.1255 -0.5974
19308SOL     OW59364   7.928   5.558   6.851  0.2640 -0.2454 -0.4988
19308SOL    HW159365   8.002   5.530   6.906  0.5826 -1.9857 -1.7453
19308SOL    HW259366   7.853   5.559   6.911  0.8802 -0.6209  0.3004
19309SOL     OW59367   4.539   0.758   8.442  0.5627  0.0141  0.1919
19309SOL    HW159368   4.561   0.833   8.498 -1.8100  0.7445  0.2570
19309SOL    HW259369   4.571   0.682   8.491 -0.5793  0.7045  2.1119
19310SOL     OW59370   1.179   4.002   1.145 -0.7327 -0.7190  0.4910
19310SOL    HW159371   1.253   3.966   1.096 -0.9057 -1.2323  0.5973
19310SOL    HW259372   1.129   3.925   1.173 -1.4654 -0.3647  0.1741
19311SOL     OW59373   5.968   7.645   7.723 -0.2402 -0.0703 -0.3862
19311SOL    HW159374   6.009   7.719   7.768 -1.9664  1.0336 -0.5092
19311SOL    HW259375   6.023   7.630   7.646  0.6276  0.4981  0.1089
19312SOL     OW59376   2.042   3.843  11.309  0.0492  0.3943  0.5524
19312SOL    HW159377   2.116   3.896  11.339  1.5996 -1.1666 -0.3416
19312SOL    HW259378   1.976   3.907  11.282  1.6481  1.8709 -0.0215
19313SOL     OW59379   3.418   5.149   0.131 -0.5931  0.0909 -0.2521
19313SOL    HW159380   3.442   5.185   0.217  0.2646  0.7322 -0.7476
19313SOL    HW259381   3.343   5.093   0.149  0.1565 -0.5374  1.0751
19314SOL     OW59382   5.643   7.402   2.545  0.8704  0.1093 -0.1111
19314SOL    HW159383   5.633   7.496   2.560  2.8167  0.0416  2.1434
19314SOL    HW259384   5.689   7.396   2.461 -1.5409  0.9757 -1.6039
19315SOL     OW59385   4.330   2.960   3.269  0.4327 -0.0581 -0.1035
19315SOL    HW159386   4.293   2.881   3.229 -0.5151  0.4985 -0.3437
19315SOL    HW259387   4.279   2.972   3.350  0.4386  0.4206 -0.1703
19316SOL     OW59388   1.851   6.970   4.913  0.2637  0.0138 -0.5090
19316SOL    HW159389   1.918   7.035   4.895  0.8202 -0.3659  0.1189
19316SOL    HW259390   1.805   7.003   4.990  0.6524 -0.4013 -0.0915
19317SOL     OW59391   3.544   5.425   4.445  0.8609 -0.2074 -0.5522
19317SOL    HW159392   3.489   5.494   4.407 -0.0968 -2.1572 -2.9847
19317SOL    HW259393   3.632   5.461   4.442  0.2920  1.2416 -0.8822
19318SOL     OW59394   4.028   0.127  11.220 -0.2415 -0.0193  0.1595
19318SOL    HW159395   4.068   0.174  11.147  1.0962 -1.0796  0.1722
19318SOL    HW259396   3.948   0.176  11.239  0.6250  1.7207 -0.4010
19319SOL     OW59397   7.523   2.061   5.770  0.1937  0.2840  0.2474
19319SOL    HW159398   7.510   1.966   5.775 -1.1636  0.4599  0.6288
19319SOL    HW259399   7.435   2.097   5.784  0.3915  1.5650 -1.4550
19320SOL     OW59400   7.738   5.706   3.611  0.2835 -0.5810 -0.2496
19320SOL    HW159401   7.788   5.739   3.536 -0.9379 -1.1305 -1.3464
19320SOL    HW259402   7.723   5.783   3.666  0.5432 -0.0105 -0.9584
19321SOL     OW59403   1.635   7.115   5.979  0.2973  0.4548 -0.2409
19321SOL    HW159404   1.674   7.158   5.903 -1.2780  2.2305 -0.0996
19321SOL    HW259405   1.543   7.105   5.957  0.5778 -2.9974 -0.2600
19322SOL     OW59406   3.362   7.115  10.796 -0.3314  0.2103 -1.1218
19322SOL    HW159407   3.355   7.132  10.890  0.3296  0.4655 -1.1144
19322SOL    HW259408   3.282   7.153  10.759 -1.3637 -1.2641 -0.4953
19323SOL     OW59409   7.089   0.535  10.563  0.0371  0.3196  0.7620
19323SOL    HW159410   7.042   0.470  10.511  2.6907 -2.0413  1.0668
19323SOL    HW259411   7.162   0.561  10.508  2.9929 -2.3268  3.0723
19324SOL     OW59412   5.296   1.092   4.277  0.3136  0.0136  0.4217
19324SOL    HW159413   5.317   1.016   4.224  0.2617  0.7021 -0.6127
19324SOL    HW259414   5.327   1.069   4.365  1.6215 -0.6409 -0.1718
19325SOL     OW59415   4.695   5.842   5.345  0.1416  0.5997 -0.2623
19325SOL    HW159416   4.703   5.906   5.274  2.4327 -0.7251 -1.3151
19325SOL    HW259417   4.735   5.886   5.421 -1.9966  1.8868  0.1897
19326SOL     OW59418   6.698   7.925   8.641  0.5153  0.1427  0.1491
19326SOL    HW159419   6.630   7.900   8.579  1.8302 -1.0885 -0.8398
19326SOL    HW259420   6.734   8.006   8.607  0.1230  0.3437  0.2109
19327SOL     OW59421   4.012   6.917   2.541  0.5378  0.2404  0.0804
19327SOL    HW159422   4.064   6.934   2.462  1.1753  0.6234  0.5754
19327SOL    HW259423   4.047   6.834   2.575 -1.0980 -1.0186 -1.1275
19328SOL     OW59424   6.550   4.020   6.680 -0.0722 -0.1756  0.1530
19328SOL    HW159425   6.516   3.931   6.671  0.9496 -0.4568 -1.2023
19328SOL    HW259426   6.602   4.034   6.602  0.2601  1.4235  0.6230
19329SOL     OW59427   3.517   4.648   3.273  0.1317  0.4648 -0.4995
19329SOL    HW159428   3.436   4.686   3.238 -0.3322 -1.5246 -1.7454
19329SOL    HW259429   3.571   4.631   3.195  1.7237  1.6110  0.3024
19330SOL     OW59430   0.937   4.797   4.537  0.5962 -0.5298  0.3047
19330SOL    HW159431   0.989   4.862   4.584  2.1981  0.4335 -2.5463
19330SOL    HW259432   0.846   4.820   4.557  1.1688  1.0647  1.2820
19331SOL     OW59433   0.858   1.416   9.142 -0.2585 -0.0247  0.0087
19331SOL    HW159434   0.828   1.506   9.129  1.5239  0.5306 -0.6645
19331SOL    HW259435   0.954   1.423   9.140 -0.0227 -1.6342  2.1550
19332SOL     OW59436   6.848   1.479   8.057  0.1650  0.5304 -0.4908
19332SOL    HW159437   6.938   1.467   8.028 -0.1329 -0.9347 -0.8992
19332SOL    HW259438   6.856   1.518   8.144  1.1568  1.1583 -0.8394
19333SOL     OW59439   4.299   4.053   3.134  0.0090  0.4670 -0.0190
19333SOL    HW159440   4.214   4.018   3.105 -0.0229  0.1226  0.4767
19333SOL    HW259441   4.363   3.991   3.100 -0.0831 -0.4134  1.3220
19334SOL     OW59442   4.881   4.024   0.561 -0.0496  0.4615  0.5231
19334SOL    HW159443   4.861   3.972   0.484 -1.6552 -1.4004  2.0686
19334SOL    HW259444   4.850   4.112   0.541  0.2012  0.1818 -1.1748
19335SOL     OW59445   2.072   0.979   5.606 -0.0743 -0.2677  0.1352
19335SOL    HW159446   2.131   0.906   5.623  1.6403  1.2207  0.9358
19335SOL    HW259447   2.001   0.969   5.671  0.8334 -0.5223  1.1147
19336SOL     OW59448   3.937   7.846   4.918 -0.2378 -0.3092  0.6875
19336SOL    HW159449   3.969   7.809   4.836  0.9215 -0.4333  1.1772
19336SOL    HW259450   4.003   7.912   4.941 -0.1640 -0.7833  1.8831
19337SOL     OW59451   6.117   6.021  10.956 -0.2222  0.6089  0.0245
19337SOL    HW159452   6.140   5.988  11.043 -1.9849 -2.0512 -0.3809
19337SOL    HW259453   6.073   6.104  10.973  0.5725  0.7553  1.5477
19338SOL     OW59454   0.254   3.640   0.570  0.3750  0.3200 -0.2791
19338SOL    HW159455   0.219   3.680   0.491  0.0312 -0.4411 -0.5223
19338SOL    HW259456   0.191   3.663   0.639 -0.8149 -1.2977 -0.7732
19339SOL     OW59457   1.352   4.307   5.323  0.6783 -0.1454 -0.2907
19339SOL    HW159458   1.308   4.387   5.349  1.0870 -0.5833  1.9137
19339SOL    HW259459   1.379   4.323   5.232  0.4112  2.0320 -0.0352
19340SOL     OW59460   5.710   5.697   8.610  0.5136  0.2096  0.5227
19340SOL    HW159461   5.666   5.667   8.531  1.9247 -0.2261 -0.1222
19340SOL    HW259462   5.670   5.646   8.681  0.4471 -0.6583 -0.1300
19341SOL     OW59463   3.284   2.241   4.274 -0.1829 -0.0758 -0.4034
19341SOL    HW159464   3.272   2.336   4.284 -1.5311  0.0899 -2.8255
19341SOL    HW259465   3.201   2.204   4.302  0.4517 -0.6020  0.8313
19342SOL     OW59466   6.727   3.083   2.380  0.0673  0.4151 -0.1161
19342SOL    HW159467   6.656   3.136   2.346 -1.7114 -0.3758  2.0840
19342SOL    HW259468   6.707   2.994   2.352 -0.4504  0.0300  1.3483
19343SOL     OW59469   3.212   1.961   4.316 -0.1103  0.1466 -0.0122
19343SOL    HW159470   3.126   2.002   4.306 -1.3358 -2.5468 -1.6448
19343SOL    HW259471   3.193   1.869   4.338  2.3846 -0.3362  0.5204
19344SOL     OW59472   3.887   4.729   8.581  0.4369  0.2747 -0.3275
19344SOL    HW159473   3.795   4.756   8.586  0.0344 -1.2746  1.2325
19344SOL    HW259474   3.884   4.641   8.544  1.3255  0.2459 -0.3488
19345SOL     OW59475   5.165   7.499   9.310  0.1778  0.2931  0.7435
19345SOL    HW159476   5.124   7.557   9.246  1.6168  0.5459  0.0152
19345SOL    HW259477   5.154   7.411   9.273 -1.8649  0.0421  1.7727
19346SOL     OW59478   3.832   0.420   9.064 -0.0969 -0.1445  0.7587
19346SOL    HW159479   3.836   0.413   9.159 -2.3072 -1.1128  0.8464
19346SOL    HW259480   3.889   0.349   9.032  2.2845  1.4270  1.2522
19347SOL     OW59481   4.380   1.879   3.809  0.1602 -0.7209  0.3741
19347SOL    HW159482   4.363   1.967   3.773  0.3292  0.2029  2.4276
19347SOL    HW259483   4.301   1.829   3.786 -0.1575  0.0909 -0.3915
19348SOL     OW59484   7.434   5.355   5.712 -0.1523  0.9012  0.2044
19348SOL    HW159485   7.498   5.301   5.760  0.4547  1.5069  0.0902
19348SOL    HW259486   7.465   5.445   5.723  0.7169  0.9865 -2.3583
19349SOL     OW59487   1.278   7.201   3.645  0.2725 -0.4593  0.6656
19349SOL    HW159488   1.207   7.141   3.669  0.5869 -1.4093 -0.6773
19349SOL    HW259489   1.358   7.155   3.670  0.4463  0.3612  1.6450
19350SOL     OW59490   2.985   1.190   7.379 -0.5243 -0.0074 -0.1282
19350SOL    HW159491   2.935   1.154   7.452  0.7367  0.6961  1.1112
19350SOL    HW259492   3.073   1.156   7.391  0.0943  1.4315 -0.3671
19351SOL     OW59493   0.343   6.145  12.366  0.3406 -0.1573  0.1395
19351SOL    HW159494   0.335   6.099  12.283  1.3093 -0.6124  0.2826
19351SOL    HW259495   0.285   6.098  12.426 -0.3268  0.1489 -0.2669
19352SOL     OW59496   7.815   5.538  10.940 -0.2307  0.8787 -0.1375
19352SOL    HW159497   7.833   5.448  10.965  1.9399  1.0371 -0.8839
19352SOL    HW259498   7.833   5.540  10.845 -0.8155  1.9632 -0.2429
19353SOL     OW59499   2.164   2.580   0.612  0.0190 -0.7156  0.2957
19353SOL    HW159500   2.155   2.518   0.684  2.4380  0.8190  2.0657
19353SOL    HW259501   2.246   2.555   0.569 -1.0375 -1.1676 -1.5692
19354SOL     OW59502   3.189   0.672   1.039 -0.1596  0.1339 -0.1544
19354SOL    HW159503   3.161   0.685   0.948 -1.1017  1.1018  0.2486
19354SOL    HW259504   3.245   0.595   1.036  0.5866  0.6875 -1.7064
19355SOL     OW59505   0.697   0.545   8.435  0.7601  0.2907 -0.2909
19355SOL    HW159506   0.663   0.560   8.346 -1.5883  2.0602  0.8052
19355SOL    HW259507   0.684   0.628   8.480  1.9363 -0.5526  1.7343
19356SOL     OW59508   6.669   2.586   2.743  0.0180 -0.9725 -0.2479
19356SOL    HW159509   6.760   2.577   2.713 -0.5420 -2.1676 -1.6943
19356SOL    HW259510   6.666   2.538   2.825  0.6746 -0.9975 -0.2327
19357SOL     OW59511   5.063   1.526   5.279 -0.0385 -0.0681 -0.3180
19357SOL    HW159512   5.098   1.586   5.344 -0.2168  0.5888 -0.8094
19357SOL    HW259513   5.029   1.452   5.329 -0.2963  0.4890  0.3382
19358SOL     OW59514   1.072   2.896   9.732  0.5190  0.2486  0.5950
19358SOL    HW159515   1.102   2.987   9.739  0.7526  0.2036  0.1814
19358SOL    HW259516   0.979   2.903   9.711  0.0455  0.3929  2.5235
19359SOL     OW59517   1.039   5.473   6.789  0.0518  0.4021 -0.7752
19359SOL    HW159518   1.086   5.396   6.821  0.9393  0.2054 -2.4200
19359SOL    HW259519   0.951   5.466   6.828  0.4122 -0.9207 -0.1501
19360SOL     OW59520   6.362   3.118   8.608  0.1586 -0.2135  0.5288
19360SOL    HW159521   6.290   3.060   8.633 -0.4574  0.4760  0.3793
19360SOL    HW259522   6.336   3.204   8.642  0.4375  0.2426 -0.4052
19361SOL     OW59523   0.284   4.619   6.070  0.1153  0.0113  0.2879
19361SOL    HW159524   0.218   4.558   6.036 -0.7989  1.5894 -0.9007
19361SOL    HW259525   0.360   4.604   6.014  0.0398 -0.3176  0.2663
19362SOL     OW59526   7.507   2.128  11.375 -0.1420 -0.1368 -0.4196
19362SOL    HW159527   7.541   2.066  11.311  0.3868 -0.4079  0.1215
19362SOL    HW259528   7.584   2.173  11.409 -0.5786  1.7188 -1.6894
19363SOL     OW59529   3.394   3.053   9.750  0.2401  0.3459  0.4267
19363SOL    HW159530   3.475   3.051   9.700 -0.4012  0.3226 -0.6296
19363SOL    HW259531   3.360   3.142   9.738  0.1136  0.3626  0.8763
19364SOL     OW59532   1.428   1.375   5.662  0.6861  0.4357 -0.3859
19364SOL    HW159533   1.465   1.298   5.704 -0.0620  0.2872  0.0085
19364SOL    HW259534   1.466   1.450   5.709 -0.1779  0.2742  0.6023
19365SOL     OW59535   6.523   7.254   4.743 -0.0692  0.1174 -0.0795
19365SOL    HW159536   6.591   7.307   4.783  0.6490 -1.2536  0.5782
19365SOL    HW259537   6.484   7.311   4.676  1.7838  0.8938 -0.5427
19366SOL     OW59538   0.535   3.172  12.041 -0.0656 -0.3503 -0.3740
19366SOL    HW159539   0.586   3.091  12.038  1.1349  0.3906 -0.4513
19366SOL    HW259540   0.598   3.240  12.063 -1.2549  0.4283  0.7779
19367SOL     OW59541   3.376   1.322   2.829 -0.0672 -0.1806  0.8242
19367SOL    HW159542   3.469   1.332   2.850 -0.1361 -1.4445  1.8306
19367SOL    HW259543   3.330   1.368   2.898 -0.2025  1.1104 -0.0945
19368SOL     OW59544   0.466   3.668  10.466 -0.0742 -0.4000  0.3075
19368SOL    HW159545   0.454   3.757  10.433  0.6964  0.7077  2.7848
19368SOL    HW259546   0.377   3.636  10.483 -0.4194 -0.5701 -1.5774
19369SOL     OW59547   3.426   6.756  11.441  0.6811 -0.0973 -0.0458
19369SOL    HW159548   3.411   6.698  11.366 -0.7824  1.2664 -0.8686
19369SOL    HW259549   3.453   6.698  11.512  1.7520 -1.4821 -1.5088
19370SOL     OW59550   6.483   3.014  12.273  0.5485 -0.2184 -0.0819
19370SOL    HW159551   6.578   3.006  12.265  0.7086  0.3076  1.1846
19370SOL    HW259552   6.469   3.091  12.329 -0.6160 -0.3701 -0.1356
19371SOL     OW59553   4.018   0.961   4.235  0.4976  0.0037 -0.6750
19371SOL    HW159554   4.044   0.870   4.250 -0.9300 -0.5085 -1.1594
19371SOL    HW259555   4.069   1.011   4.299 -0.8409 -1.4373  1.6657
19372SOL     OW59556   0.022   1.911   3.091  0.3485  0.5284 -0.5447
19372SOL    HW159557   0.028   1.815   3.093  0.5634  0.4344 -2.7749
19372SOL    HW259558  -0.071   1.929   3.084  0.3453  0.4434 -0.7362
19373SOL     OW59559   4.284   0.722   0.573 -0.1103 -0.1264 -0.4842
19373SOL    HW159560   4.352   0.770   0.527 -0.0927  0.2834 -0.0296
19373SOL    HW259561   4.280   0.761   0.660 -0.0639 -0.9712 -0.0923
19374SOL     OW59562   6.432   0.188   9.478 -0.0388  0.1526  0.7232
19374SOL    HW159563   6.449   0.176   9.571 -0.6319 -1.3456  0.6578
19374SOL    HW259564   6.503   0.244   9.448  0.2309  0.5602  2.0435
19375SOL     OW59565   1.137   2.519  10.274  0.0904 -0.2870  0.2307
19375SOL    HW159566   1.124   2.433  10.233  1.7205  0.3932 -1.9410
19375SOL    HW259567   1.154   2.499  10.366 -2.6652 -2.0050  0.4857
19376SOL     OW59568   4.195   0.568   2.500  0.1090 -0.2567  0.0300
19376SOL    HW159569   4.210   0.573   2.594  2.6806  0.1200 -0.3071
19376SOL    HW259570   4.228   0.482   2.475 -2.9630 -1.4452 -0.2317
19377SOL     OW59571   5.863   7.809   5.728  0.3372 -0.2762 -0.1117
19377SOL    HW159572   5.768   7.798   5.737  0.4787 -0.1549  1.8800
19377SOL    HW259573   5.896   7.720   5.714 -0.0751 -0.2800 -1.1757
19378SOL     OW59574   2.617   0.584   4.389  0.0001 -0.2796 -0.1723
19378SOL    HW159575   2.653   0.593   4.477 -2.1798 -0.8868  0.8470
19378SOL    HW259576   2.658   0.655   4.339  0.5510  0.6873  1.5675
19379SOL     OW59577   2.687   2.002   1.450 -0.0067  0.1282  0.3146
19379SOL    HW159578   2.648   1.989   1.536  0.4369 -0.4351  0.4421
19379SOL    HW259579   2.701   1.913   1.417 -1.1717  0.3280 -0.8089
19380SOL     OW59580   4.705   6.738  10.998  0.6895 -0.1752  0.2488
19380SOL    HW159581   4.769   6.772  11.061  1.3657 -1.5673  0.3505
19380SOL    HW259582   4.657   6.815  10.969  1.0175  0.6387  1.7377
19381SOL     OW59583   2.011   1.953  12.139 -0.7714  0.1081  0.4991
19381SOL    HW159584   1.988   2.045  12.127 -1.7537 -0.1785  0.1326
19381SOL    HW259585   1.955   1.924  12.211 -1.2215 -0.4810 -0.0882
19382SOL     OW59586   3.403   0.839   2.053 -0.5915 -0.0121  0.1359
19382SOL    HW159587   3.380   0.851   2.146  1.4145  0.3135  0.6440
19382SOL    HW259588   3.433   0.748   2.048 -0.2252  0.1180 -0.0703
19383SOL     OW59589   1.525   6.664   8.319  0.1429 -0.4104  0.1190
19383SOL    HW159590   1.547   6.753   8.347  0.2317 -0.5337  0.4419
19383SOL    HW259591   1.602   6.612   8.341  0.0201 -0.6027  0.0975
19384SOL     OW59592   6.190   4.260   7.568  0.1461 -0.3378 -0.0829
19384SOL    HW159593   6.129   4.288   7.636 -0.2033 -1.5850  0.1455
19384SOL    HW259594   6.180   4.165   7.565  1.0481 -0.4172 -1.0368
19385SOL     OW59595   7.860   6.522   1.432 -0.1003  0.1724 -0.9483
19385SOL    HW159596   7.818   6.574   1.500  1.2391  0.7718 -0.5482
19385SOL    HW259597   7.830   6.561   1.350  0.4315  1.2353 -0.6600
19386SOL     OW59598   1.933   5.206   7.560  0.2304  0.5712 -0.4644
19386SOL    HW159599   1.930   5.130   7.502 -1.0130  0.7505 -0.6584
19386SOL    HW259600   2.000   5.263   7.522  0.5502 -0.0218 -0.8109
19387SOL     OW59601   5.246   5.422   1.428  0.0693  0.0247  0.4616
19387SOL    HW159602   5.295   5.453   1.351  0.8004 -1.3159  0.3591
19387SOL    HW259603   5.164   5.471   1.425  0.0633 -0.0309 -1.2018
19388SOL     OW59604   0.631   2.586   7.228 -0.5526  0.4915 -0.0615
19388SOL    HW159605   0.597   2.654   7.286  0.7003 -0.4415  1.9000
19388SOL    HW259606   0.724   2.608   7.217 -0.6911  0.4647 -1.4942
19389SOL     OW59607   2.725   6.813   1.418 -0.0704 -0.2704  0.5143
19389SOL    HW159608   2.759   6.753   1.352  0.7746 -0.2391  0.9085
19389SOL    HW259609   2.668   6.872   1.369 -1.3638 -1.7257  0.2170
19390SOL     OW59610   2.041   1.151   3.100 -0.5385 -0.4305 -0.5118
19390SOL    HW159611   2.020   1.068   3.057 -0.1868 -1.0712  0.5207
19390SOL    HW259612   2.016   1.138   3.191  0.4578  0.2268 -0.1233
19391SOL     OW59613   3.133   0.217   8.836 -0.1464 -0.0768 -0.5578
19391SOL    HW159614   3.147   0.177   8.750  0.6934 -0.0451 -0.4439
19391SOL    HW259615   3.221   0.232   8.870 -0.4630  0.9266 -0.1532
19392SOL     OW59616   3.267   1.179   9.885  0.3073  0.2650 -0.4660
19392SOL    HW159617   3.197   1.203   9.824  0.2104  1.6075  0.1424
19392SOL    HW259618   3.313   1.261   9.904 -0.3573  0.1505  2.0946
19393SOL     OW59619   1.710   5.021  10.127 -0.3905 -0.0737 -0.1852
19393SOL    HW159620   1.782   5.054  10.073  0.4571 -0.2802  0.7803
19393SOL    HW259621   1.740   4.937  10.160 -1.3446 -0.4655 -0.2771
19394SOL     OW59622   6.368   6.031   2.104 -0.3860 -0.0775 -0.2242
19394SOL    HW159623   6.304   6.084   2.151  0.1564  0.0119  0.4314
19394SOL    HW259624   6.379   6.075   2.020  0.7615  1.3944  0.6638
19395SOL     OW59625   5.695   6.590   9.630  0.1169  0.4076 -0.1632
19395SOL    HW159626   5.749   6.669   9.624  3.4470 -1.6274  0.5916
19395SOL    HW259627   5.660   6.592   9.720  1.6452  0.1990  0.4613
19396SOL     OW59628   6.055   0.067   0.280 -0.0728  0.2869 -0.3148
19396SOL    HW159629   6.114   0.136   0.311  0.0963 -0.4171  1.0155
19396SOL    HW259630   6.017   0.103   0.200 -0.2390  2.0610  0.5022
19397SOL     OW59631   7.401   6.791   1.549  0.3485  0.0926 -0.0361
19397SOL    HW159632   7.436   6.794   1.638 -2.5434 -1.1027  1.2729
19397SOL    HW259633   7.461   6.733   1.502  0.4419 -1.5223  1.9382
19398SOL     OW59634   1.676   5.951   3.591  0.4771 -0.0952 -0.4608
19398SOL    HW159635   1.613   5.905   3.535  1.5142  0.1190 -1.8730
19398SOL    HW259636   1.733   5.882   3.624 -0.9842 -0.4097  1.5680
19399SOL     OW59637   0.547   0.015   5.871  0.7867  0.6218 -0.8715
19399SOL    HW159638   0.459   0.024   5.834  0.1516  1.2677  0.6782
19399SOL    HW259639   0.566  -0.078   5.865 -0.7574  0.1792  0.2697
19400SOL     OW59640   3.581   6.587   1.977 -0.1721  0.2561  0.1643
19400SOL    HW159641   3.496   6.568   2.017 -0.1452  0.3580  0.2695
19400SOL    HW259642   3.644   6.535   2.027  0.0680  1.5305  1.2422
19401SOL     OW59643   1.470   3.878  10.495 -0.0974  0.4147 -0.4263
19401SOL    HW159644   1.518   3.879  10.577  1.9646 -0.7948 -1.5366
19401SOL    HW259645   1.426   3.964  10.492  0.8334  0.9945  1.3011
19402SOL     OW59646   7.856   1.416  12.215 -0.1285 -0.0191  0.0873
19402SOL    HW159647   7.837   1.407  12.122  0.4546  0.9219 -0.1352
19402SOL    HW259648   7.898   1.502  12.223  0.1919 -0.2592  1.1575
19403SOL     OW59649   6.802   3.782   5.907 -0.1784 -0.1494  0.2984
19403SOL    HW159650   6.741   3.710   5.892  1.3511 -1.7496  1.3647
19403SOL    HW259651   6.888   3.746   5.887  0.6164  1.5101  0.4967
19404SOL     OW59652   2.894   7.320   3.767  0.0905 -0.1495  0.0907
19404SOL    HW159653   2.814   7.366   3.793 -0.2473 -1.6353  1.9244
19404SOL    HW259654   2.965   7.373   3.803 -0.1122  0.5694 -0.5448
19405SOL     OW59655   2.869   1.137   8.393 -0.4106 -0.1080 -0.1411
19405SOL    HW159656   2.926   1.072   8.434 -1.6933 -1.0795  0.1771
19405SOL    HW259657   2.827   1.091   8.321 -2.0973  0.0238  0.6975
19406SOL     OW59658   0.827   0.260   4.875  0.0777 -0.1751  0.1318
19406SOL    HW159659   0.854   0.284   4.963  0.4724 -0.7286  0.1644
19406SOL    HW259660   0.832   0.164   4.873  1.1908 -0.1135 -0.8500
19407SOL     OW59661   5.117   1.152  10.446 -0.1518  0.6719  0.3090
19407SOL    HW159662   5.159   1.231  10.413  0.5718 -0.2358 -1.0305
19407SOL    HW259663   5.111   1.166  10.541  1.4816  1.6201  0.3137
19408SOL     OW59664   6.065   0.598   2.857 -0.2061 -0.3905  0.8398
19408SOL    HW159665   6.037   0.689   2.854  0.1211 -0.2990  0.4311
19408SOL    HW259666   6.003   0.552   2.800  1.1964  0.0266 -1.1481
19409SOL     OW59667   5.336   4.607   0.609  1.1311  0.6009  0.0996
19409SOL    HW159668   5.395   4.613   0.534  1.6064 -1.1739  0.2677
19409SOL    HW259669   5.302   4.517   0.605  1.9258  0.1195  2.5458
19410SOL     OW59670   7.768   7.103  10.637  0.2023  0.3968 -0.2455
19410SOL    HW159671   7.778   7.083  10.544 -2.2802 -2.3939 -0.0761
19410SOL    HW259672   7.856   7.098  10.673  0.8103 -2.3808 -1.8635
19411SOL     OW59673   7.319   6.594   0.453  0.2745 -0.6612 -0.4765
19411SOL    HW159674   7.372   6.541   0.513  1.7604 -1.4417 -2.3837
19411SOL    HW259675   7.313   6.541   0.373 -4.4423 -1.1971 -0.0791
19412SOL     OW59676   1.538   3.319   9.001 -0.1725  0.0451  0.0447
19412SOL    HW159677   1.508   3.341   8.913 -2.4753 -1.1974  0.4295
19412SOL    HW259678   1.625   3.281   8.989 -0.6353 -0.5141 -1.7523
19413SOL     OW59679   4.761   6.828   2.680 -0.1808 -0.7971  0.2057
19413SOL    HW159680   4.715   6.908   2.702  1.7608  0.7167 -0.8950
19413SOL    HW259681   4.736   6.809   2.589  2.1195  0.7283 -0.8388
19414SOL     OW59682   1.851   5.855   3.016  0.4355 -0.7063  0.1816
19414SOL    HW159683   1.803   5.797   2.955 -0.6864 -3.0380  3.0465
19414SOL    HW259684   1.784   5.913   3.051  0.9940  0.3205 -0.3993
19415SOL     OW59685   1.157   5.611   7.032  0.0435 -0.0913  0.1049
19415SOL    HW159686   1.168   5.623   6.938  2.8434  4.9061  0.7069
19415SOL    HW259687   1.079   5.663   7.054 -0.2187 -0.6924  0.6221
19416SOL     OW59688   4.265   4.740  12.359 -0.4662  0.0740  0.5077
19416SOL    HW159689   4.334   4.790  12.402  0.9932 -0.8028 -0.7418
19416SOL    HW259690   4.296   4.649  12.361  0.3424  0.0910 -3.3926
19417SOL     OW59691   6.460   2.902   2.722  0.0830  0.7068  0.0003
19417SOL    HW159692   6.458   2.914   2.627 -0.2618  1.5611  0.1129
19417SOL    HW259693   6.444   2.989   2.758  0.8923  0.5168  0.8527
19418SOL     OW59694   5.253   1.566   4.576 -0.1400 -0.4679  0.2119
19418SOL    HW159695   5.271   1.558   4.670  0.0648 -1.7125  0.0755
19418SOL    HW259696   5.336   1.544   4.534  0.5799  2.6260 -0.2534
19419SOL     OW59697   6.071   3.419  11.649  0.1670  0.3660  0.2082
19419SOL    HW159698   6.078   3.328  11.619  1.8731 -0.1249  1.8692
19419SOL    HW259699   6.049   3.469  11.570 -2.8410 -1.6511 -0.4226
19420SOL     OW59700   6.426   0.998  10.582  0.1338  0.7559  0.0927
19420SOL    HW159701   6.349   1.026  10.632 -0.3573 -1.4480  0.7071
19420SOL    HW259702   6.396   0.994  10.491 -0.8421 -1.0700  0.4535
19421SOL     OW59703   7.293   5.850   3.946  0.3714 -0.1340  0.3141
19421SOL    HW159704   7.245   5.913   4.000  2.3734  0.1977  1.8052
19421SOL    HW259705   7.290   5.768   3.996  0.2737 -0.4480 -0.1994
19422SOL     OW59706   2.912   6.792   2.964  0.5595 -0.4298 -0.2481
19422SOL    HW159707   2.931   6.877   3.003 -0.1478 -0.5895  0.4584
19422SOL    HW259708   2.856   6.811   2.889 -0.1440 -0.3177  0.2966
19423SOL     OW59709   7.659   4.140   3.169 -0.0675  0.0951 -0.4408
19423SOL    HW159710   7.720   4.193   3.221  0.6737 -1.2312  0.0953
19423SOL    HW259711   7.580   4.194   3.163  0.9418  1.6119 -0.6560
19424SOL     OW59712   6.961   3.985   6.007  0.4058 -0.1906 -0.0305
19424SOL    HW159713   6.932   4.007   5.919  1.2024 -2.0246 -0.8066
19424SOL    HW259714   7.045   4.029   6.016 -0.0434  0.6591  0.1482
19425SOL     OW59715   7.481   3.223   4.701  0.1337  0.1106 -0.1168
19425SOL    HW159716   7.569   3.248   4.727  0.6249 -1.1858 -0.4707
19425SOL    HW259717   7.461   3.280   4.627  0.9890 -0.1012 -0.5241
19426SOL     OW59718   5.741   3.519   9.093 -0.4909 -0.1981  0.5558
19426SOL    HW159719   5.811   3.492   9.153 -0.5462 -1.6103  0.0127
19426SOL    HW259720   5.671   3.551   9.150  0.2224  0.3614  1.1453
19427SOL     OW59721   4.273   0.744   9.174  0.1860 -0.0466  0.0998
19427SOL    HW159722   4.315   0.718   9.257 -0.8624  1.6183  1.2067
19427SOL    HW259723   4.189   0.698   9.174  0.2796 -0.2180 -0.1533
19428SOL     OW59724   6.507   4.176   2.416 -0.1471  0.1105 -0.5996
19428SOL    HW159725   6.522   4.148   2.326  0.2695  1.4260 -0.9636
19428SOL    HW259726   6.412   4.185   2.423 -0.0741  2.1080 -1.6027
19429SOL     OW59727   1.755   1.269   5.601  0.0063 -0.4494  0.1938
19429SOL    HW159728   1.678   1.302   5.556 -0.4113  0.4234  1.4807
19429SOL    HW259729   1.727   1.258   5.692  1.4165  0.0235  0.7181
19430SOL     OW59730   5.430   4.618   7.611 -0.0320  0.4194  0.0575
19430SOL    HW159731   5.414   4.667   7.530 -0.9699  2.1585  1.2313
19430SOL    HW259732   5.414   4.527   7.587  0.2796  0.8250 -1.8480
19431SOL     OW59733   1.143   5.996   9.388 -0.1365 -0.1418 -0.2422
19431SOL    HW159734   1.126   6.025   9.478 -0.7384  0.3057 -0.4927
19431SOL    HW259735   1.130   5.901   9.391 -1.1645 -0.0051 -0.0741
19432SOL     OW59736   3.228   1.612   3.623  0.0385 -0.1083  0.4208
19432SOL    HW159737   3.319   1.583   3.618 -0.2786 -0.9494 -0.8513
19432SOL    HW259738   3.234   1.705   3.644  1.2384  0.1999 -1.1236
19433SOL     OW59739   5.742   7.776   6.381 -0.3479  0.3199  0.2136
19433SOL    HW159740   5.718   7.685   6.362 -0.8989  0.5023  0.0325
19433SOL    HW259741   5.779   7.773   6.469  0.7753 -0.2768 -0.2468
19434SOL     OW59742   3.885   4.109  10.975 -0.4313 -0.5815 -0.4750
19434SOL    HW159743   3.901   4.197  11.007 -0.0123 -0.4367 -1.0762
19434SOL    HW259744   3.971   4.066  10.976 -0.6551 -1.0316 -0.0480
19435SOL     OW59745   6.772   5.451   5.057 -0.2565 -0.1234 -0.3407
19435SOL    HW159746   6.844   5.389   5.065 -1.2403 -1.5570 -1.9091
19435SOL    HW259747   6.694   5.396   5.051 -1.0872  1.1918 -2.6900
19436SOL     OW59748   5.955   7.196   7.654  0.2772  0.5116  0.0561
19436SOL    HW159749   5.883   7.257   7.634 -1.6838 -1.6946 -0.0724
19436SOL    HW259750   5.973   7.153   7.571  0.7110 -0.0267  0.4237
19437SOL     OW59751   1.979   2.633   3.409 -0.2252  0.8219 -0.3850
19437SOL    HW159752   2.047   2.566   3.419 -1.2872 -1.4738 -5.2728
19437SOL    HW259753   1.919   2.618   3.482  0.7027 -2.2208 -0.1031
19438SOL     OW59754   1.284   4.704   6.105  0.3149 -0.5727  0.3603
19438SOL    HW159755   1.257   4.701   6.013 -0.3726  0.2395  0.5258
19438SOL    HW259756   1.318   4.792   6.117  0.3980 -0.6732  0.8868
19439SOL     OW59757   2.259   4.279   2.771 -0.5775  0.8743  0.3500
19439SOL    HW159758   2.174   4.294   2.730  0.1937 -0.0154 -1.7217
19439SOL    HW259759   2.318   4.339   2.725  0.5352 -0.9373 -0.6889
19440SOL     OW59760   4.379   4.042   5.047  0.0439  0.0059  0.4269
19440SOL    HW159761   4.328   4.002   5.118  1.3728 -2.8507 -0.1218
19440SOL    HW259762   4.385   3.975   4.980  0.9634  1.7687 -1.3660
19441SOL     OW59763   7.464   1.149  10.434 -0.7084 -0.3967 -0.6421
19441SOL    HW159764   7.518   1.227  10.418  0.1918 -0.5564  1.2860
19441SOL    HW259765   7.400   1.177  10.499  0.7542 -1.6178  1.4674
19442SOL     OW59766   1.649   5.572   3.133 -0.2181  0.2043 -0.1791
19442SOL    HW159767   1.696   5.592   3.215  0.0853 -1.1015 -0.0108
19442SOL    HW259768   1.574   5.631   3.134 -1.2971 -1.0444  2.0233
19443SOL     OW59769   4.921   1.554  12.158  0.1976 -0.2261  0.3153
19443SOL    HW159770   4.874   1.483  12.115 -0.9863 -0.1542  1.4337
19443SOL    HW259771   4.855   1.623  12.169  1.1076  0.7232  0.0315
19444SOL     OW59772   3.158   2.767   4.243  0.4055 -0.6995  0.1775
19444SOL    HW159773   3.095   2.715   4.194  0.4145 -0.3206 -0.2463
19444SOL    HW259774   3.105   2.809   4.312  0.1464 -0.2179 -0.3043
19445SOL     OW59775   0.294   4.590  11.484  0.4159 -0.1957 -0.3413
19445SOL    HW159776   0.331   4.621  11.567 -0.7327  0.0386  0.1080
19445SOL    HW259777   0.349   4.629  11.417  1.2503 -0.2300  0.3131
19446SOL     OW59778   0.188   3.083   6.927  0.5757  0.5798  0.0163
19446SOL    HW159779   0.198   3.101   7.020  0.2075 -0.8126  0.3491
19446SOL    HW259780   0.275   3.100   6.890  0.7232  1.1353  0.6086
19447SOL     OW59781   1.964   1.622  11.152 -0.7804  0.2969  0.0419
19447SOL    HW159782   2.053   1.587  11.143 -0.3426  1.1059  0.9788
19447SOL    HW259783   1.920   1.597  11.071  0.0880 -0.7256 -0.1409
19448SOL     OW59784   5.474   5.517   7.966 -0.2599  0.5881  0.2196
19448SOL    HW159785   5.500   5.597   7.918  1.0184  0.5689  0.8238
19448SOL    HW259786   5.546   5.456   7.950 -0.0627  0.3979  1.7070
19449SOL     OW59787   6.813   5.483   3.581  0.3294 -0.1421 -0.0894
19449SOL    HW159788   6.781   5.425   3.512 -0.6792 -0.4624  0.6192
19449SOL    HW259789   6.739   5.490   3.642  0.9570  0.6953  0.5915
19450SOL     OW59790   1.849   0.750   7.273  0.2598  0.0362 -0.6132
19450SOL    HW159791   1.782   0.769   7.338  0.4763  2.9577 -1.1165
19450SOL    HW259792   1.805   0.760   7.189  0.5563 -1.3920 -0.9717
19451SOL     OW59793   6.995   4.040  10.074  0.0156  0.3138 -0.3012
19451SOL    HW159794   7.015   4.063  10.165 -1.1102 -1.1164  0.3534
19451SOL    HW259795   6.908   4.075  10.059  0.6003  1.4397 -1.2006
19452SOL     OW59796   4.348   6.684   1.054 -0.3603 -0.5015 -0.3824
19452SOL    HW159797   4.262   6.642   1.047 -0.5841  0.0387 -0.9990
19452SOL    HW259798   4.346   6.727   1.140 -2.1146  2.4516 -1.7425
19453SOL     OW59799   4.361   4.636   7.128 -0.2004 -0.2251  0.0799
19453SOL    HW159800   4.376   4.695   7.054 -0.8694  0.0985  0.1926
19453SOL    HW259801   4.406   4.555   7.103 -1.1912 -0.4484 -1.1260
19454SOL     OW59802   4.156   6.619   3.437  0.3548  0.0349 -0.7707
19454SOL    HW159803   4.095   6.554   3.401  1.5249 -1.6522  0.1250
19454SOL    HW259804   4.130   6.702   3.396 -2.0831 -0.7193 -0.9198
19455SOL     OW59805   5.499   0.754   0.181 -0.4072  0.1019  0.4115
19455SOL    HW159806   5.517   0.821   0.247 -1.1982 -0.1824  0.9330
19455SOL    HW259807   5.415   0.716   0.208 -1.4858  0.9285 -1.5295
19456SOL     OW59808   4.864   5.228  11.808 -0.0510 -0.2474  0.0433
19456SOL    HW159809   4.885   5.316  11.777  0.8401 -0.5782 -0.3237
19456SOL    HW259810   4.869   5.234  11.904 -2.2931  0.6491  0.1670
19457SOL     OW59811   0.531   4.887   4.067 -0.2629  0.1734  0.6038
19457SOL    HW159812   0.553   4.977   4.089 -1.3831  0.7252 -0.4372
19457SOL    HW259813   0.572   4.835   4.136  0.0341  1.4983  1.4603
19458SOL     OW59814   3.269   6.262   9.035 -0.4175 -0.2646 -0.6737
19458SOL    HW159815   3.311   6.339   9.074  0.9183 -0.7668 -1.0797
19458SOL    HW259816   3.209   6.299   8.970  0.9435  0.4366 -1.5806
19459SOL     OW59817   3.606   2.478   4.856 -0.5660 -0.2423  0.1695
19459SOL    HW159818   3.525   2.515   4.893  0.5206  0.4927  1.9268
19459SOL    HW259819   3.599   2.384   4.872 -0.8763 -0.1285  0.7119
19460SOL     OW59820   0.228   7.481   2.596 -0.2269 -0.2187 -0.0103
19460SOL    HW159821   0.323   7.477   2.588 -0.2094  0.5185 -0.1697
19460SOL    HW259822   0.200   7.390   2.586  0.3447 -0.2570 -1.5422
19461SOL     OW59823   1.062   3.383   9.079  0.1609 -0.2287 -0.4887
19461SOL    HW159824   1.111   3.423   9.151  1.2815 -0.5967 -1.0314
19461SOL    HW259825   0.985   3.345   9.121 -0.2600  1.3391  0.2213
19462SOL     OW59826   4.612   3.623   2.308 -0.7852  0.6973 -0.6123
19462SOL    HW159827   4.579   3.592   2.393 -0.6315 -1.5159 -1.3108
19462SOL    HW259828   4.706   3.609   2.312 -0.6973  1.1461 -0.9563
19463SOL     OW59829   7.706   1.517  10.152 -0.1523 -0.5668  0.0515
19463SOL    HW159830   7.710   1.472  10.068 -2.1136  0.2949 -0.5628
19463SOL    HW259831   7.736   1.606  10.134  0.3107 -0.6237  0.4908
19464SOL     OW59832   7.331   1.611   6.228 -0.7541 -0.0166 -0.5519
19464SOL    HW159833   7.362   1.564   6.150 -0.2452 -1.1746  0.3118
19464SOL    HW259834   7.311   1.541   6.291  0.1421  0.9325  0.8368
19465SOL     OW59835   0.900   2.236  11.896  0.4907 -0.3007 -0.4194
19465SOL    HW159836   0.922   2.178  11.969  1.5658 -1.5101 -1.6663
19465SOL    HW259837   0.807   2.221  11.881  0.6843 -1.4878 -0.5303
19466SOL     OW59838   4.343   7.370   9.963  0.3753  0.2978  0.6741
19466SOL    HW159839   4.261   7.337   9.926  0.8441  1.3917 -1.4862
19466SOL    HW259840   4.326   7.376  10.058 -2.1107  0.6933  0.2769
19467SOL     OW59841   0.332   7.818   4.327  0.2389 -0.0101  0.3853
19467SOL    HW159842   0.423   7.835   4.301  0.8845 -1.1720  1.7471
19467SOL    HW259843   0.293   7.776   4.251  0.8286  0.5455 -0.2340
19468SOL     OW59844   6.164   3.925   9.382 -0.1030 -0.1292 -0.3085
19468SOL    HW159845   6.229   3.870   9.338 -0.9073 -0.1839 -1.4751
19468SOL    HW259846   6.084   3.874   9.380 -0.5733  0.5970 -0.3367
19469SOL     OW59847   3.480   3.373   0.416 -0.5652 -0.1791  0.5350
19469SOL    HW159848   3.455   3.281   0.424 -1.3623 -0.1359 -1.1198
19469SOL    HW259849   3.568   3.371   0.378 -0.2542 -0.2498  1.2388
19470SOL     OW59850   7.244   6.364   0.254 -0.2200  0.2183  0.0476
19470SOL    HW159851   7.237   6.356   0.159  1.7504 -0.5198 -0.0959
19470SOL    HW259852   7.339   6.362   0.270 -0.5431 -0.2320  2.0727
19471SOL     OW59853   6.019   0.717   2.532 -0.7028  0.5111 -0.8339
19471SOL    HW159854   6.109   0.721   2.565 -2.0057  1.5904  3.2064
19471SOL    HW259855   5.993   0.625   2.544 -1.0405  0.8170  1.0524
19472SOL     OW59856   0.243   2.600   5.172 -0.2824  0.0542  0.0462
19472SOL    HW159857   0.262   2.601   5.078 -1.1174 -1.3195 -0.1628
19472SOL    HW259858   0.213   2.689   5.191 -0.6780  0.1877 -1.1254
19473SOL     OW59859   1.275   7.139   4.958 -0.1343 -0.1183 -0.3480
19473SOL    HW159860   1.309   7.088   5.031 -0.1841  0.0625 -0.1990
19473SOL    HW259861   1.248   7.073   4.893 -0.9217 -0.3051  0.1591
19474SOL     OW59862   1.320   5.104   3.119  0.4691  0.1513  0.1226
19474SOL    HW159863   1.331   5.198   3.131 -0.9130  0.6511 -1.9963
19474SOL    HW259864   1.409   5.068   3.125  0.8506  1.2785  2.7395
19475SOL     OW59865   1.399   6.718   4.405  0.1449 -0.0076 -0.1507
19475SOL    HW159866   1.414   6.810   4.428 -2.0663 -0.0888  2.0591
19475SOL    HW259867   1.487   6.682   4.391  1.1888  1.9637  0.9173
19476SOL     OW59868   7.115   4.021   8.922 -0.4070  0.0467  0.7290
19476SOL    HW159869   7.123   4.018   8.826  1.0309 -0.6171  0.8474
19476SOL    HW259870   7.141   4.110   8.945 -2.9363  0.9521  0.3671
19477SOL     OW59871   6.666   4.718   8.872 -0.0531 -0.3249 -0.6235
19477SOL    HW159872   6.683   4.782   8.941  0.0456  0.6207 -1.4999
19477SOL    HW259873   6.753   4.692   8.842 -0.0985 -0.3919 -0.6984
19478SOL     OW59874   6.662   2.493   3.346  0.0333 -0.6273  0.8039
19478SOL    HW159875   6.615   2.411   3.334 -0.2247 -0.3529 -0.0655
19478SOL    HW259876   6.705   2.510   3.262  0.6346 -0.2126  1.1822
19479SOL     OW59877   4.205   5.647   6.136  0.4663  0.0489  0.6583
19479SOL    HW159878   4.122   5.600   6.144  1.1767 -1.2562  0.7809
19479SOL    HW259879   4.259   5.590   6.080  1.1342  1.0704  0.2440
19480SOL     OW59880   2.981   1.024   5.946  0.1032 -0.5131  0.2545
19480SOL    HW159881   2.951   1.088   5.882 -0.9343  0.0792  1.2871
19480SOL    HW259882   3.076   1.032   5.947  0.0483  0.2611 -0.3905
19481SOL     OW59883   3.562   6.749   1.383  0.4945 -0.6446 -0.4670
19481SOL    HW159884   3.634   6.750   1.446 -0.1217  0.1886  0.2641
19481SOL    HW259885   3.584   6.679   1.322  0.4329 -2.4781  1.4865
19482SOL     OW59886   6.393   5.841   1.084  0.3037  0.3168 -0.1048
19482SOL    HW159887   6.310   5.815   1.123 -0.7159  0.5666 -2.0139
19482SOL    HW259888   6.459   5.794   1.136 -1.0115 -0.0103  1.3415
19483SOL     OW59889   7.838   3.390   5.872 -0.3734  0.1931 -0.2980
19483SOL    HW159890   7.796   3.475   5.884  0.4569  0.8617 -1.7942
19483SOL    HW259891   7.780   3.342   5.813  0.2922  0.6317 -1.3347
19484SOL     OW59892   5.837   4.719  12.309 -0.4188 -0.1562  0.4835
19484SOL    HW159893   5.923   4.748  12.278 -0.0787 -1.4381  0.1771
19484SOL    HW259894   5.832   4.752  12.399  0.1652  0.3770  0.3257
19485SOL     OW59895   6.870   3.442   1.070  0.1771  0.5964  0.3706
19485SOL    HW159896   6.896   3.435   1.162  1.7750  1.7839  0.0496
19485SOL    HW259897   6.856   3.351   1.043  3.0614 -0.1100  0.9139
19486SOL     OW59898   0.546   7.366  11.235  0.2450 -0.2284  0.4487
19486SOL    HW159899   0.514   7.387  11.322 -1.3030 -0.2261 -0.0819
19486SOL    HW259900   0.557   7.271  11.235  0.5188 -0.1977  0.7247
19487SOL     OW59901   1.568   7.500   1.751  0.0095  0.3964  0.4450
19487SOL    HW159902   1.630   7.448   1.803  1.0040  1.3314  0.2154
19487SOL    HW259903   1.581   7.469   1.661 -1.9706 -1.4845  0.7041
19488SOL     OW59904   2.623   4.060   8.608  0.1721 -0.4545  0.9814
19488SOL    HW159905   2.704   4.104   8.581 -0.4842  0.4780  0.4514
19488SOL    HW259906   2.554   4.107   8.561 -0.5661 -2.1690  0.2791
19489SOL     OW59907   2.887   0.375   5.660 -0.1715  0.7895 -0.0335
19489SOL    HW159908   2.924   0.447   5.712  1.3648  1.2643 -1.6951
19489SOL    HW259909   2.935   0.298   5.690 -0.1138  0.8618  0.0623
19490SOL     OW59910   1.270   7.758   3.526 -0.3029 -0.2217 -0.1139
19490SOL    HW159911   1.238   7.805   3.604  0.2263 -0.8561  0.4964
19490SOL    HW259912   1.263   7.666   3.549  0.3835 -0.4076 -0.6147
19491SOL     OW59913   1.272   3.752   5.470 -0.3006  0.0838  0.3179
19491SOL    HW159914   1.288   3.668   5.427 -0.5222  0.5279 -0.6437
19491SOL    HW259915   1.212   3.731   5.542  0.0889 -0.6641  0.4389
19492SOL     OW59916   1.300   4.060   3.821 -0.1376 -0.3132 -0.3293
19492SOL    HW159917   1.382   4.069   3.773  2.3984 -2.0734  3.1917
19492SOL    HW259918   1.252   3.992   3.774  0.9352 -0.0978 -1.8114
19493SOL     OW59919   7.521   0.010   3.256 -0.3829  0.0312 -0.0027
19493SOL    HW159920   7.587  -0.042   3.301  0.3397  0.5923 -0.3854
19493SOL    HW259921   7.552   0.015   3.165 -1.9083 -1.2319 -0.6398
19494SOL     OW59922   4.966   3.989   1.757  0.0580 -0.0469 -0.0568
19494SOL    HW159923   4.941   3.897   1.769  0.1145 -0.3199 -1.7679
19494SOL    HW259924   5.049   3.997   1.804 -0.5468 -0.5398  1.1310
19495SOL     OW59925   6.715   3.702   8.496  0.6483  0.1539  0.5521
19495SOL    HW159926   6.737   3.696   8.590  1.5522  0.7706  0.3911
19495SOL    HW259927   6.785   3.654   8.453  1.5787  1.9159  0.0381
19496SOL     OW59928   5.895   4.538   6.696  0.4287 -0.3093 -0.0896
19496SOL    HW159929   5.963   4.592   6.656  0.1618  2.1056  2.4437
19496SOL    HW259930   5.917   4.536   6.789 -1.8034 -1.2349  0.4853
19497SOL     OW59931   3.022   4.573   8.300  0.4309  0.0175  0.0174
19497SOL    HW159932   3.058   4.654   8.336  0.5078 -0.5942  1.4041
19497SOL    HW259933   3.093   4.536   8.247  1.9564 -1.1652  2.6906
19498SOL     OW59934   6.165   2.737  11.161 -0.6964  0.1222 -0.3981
19498SOL    HW159935   6.198   2.710  11.247 -0.9430  0.4032 -0.2151
19498SOL    HW259936   6.114   2.662  11.132 -0.0266 -0.2607 -0.6211
19499SOL     OW59937   3.637   2.824  10.655  0.3156  0.2157 -0.3414
19499SOL    HW159938   3.688   2.762  10.603  1.3763  0.0812  0.8171
19499SOL    HW259939   3.653   2.798  10.746 -1.5419  0.4044  0.0666
19500SOL     OW59940   4.215   0.855   1.908  0.7569 -0.1516  0.1504
19500SOL    HW159941   4.173   0.941   1.907 -1.0206 -0.9737 -0.3091
19500SOL    HW259942   4.142   0.793   1.910  1.9987 -1.6582  1.1736
19501SOL     OW59943   5.356   6.040   2.196 -0.4905 -0.5441  0.0146
19501SOL    HW159944   5.354   6.117   2.253 -1.1738 -0.8044  0.3462
19501SOL    HW259945   5.445   6.006   2.205  0.0069  0.5564 -0.6080
19502SOL     OW59946   0.831   3.115  10.686 -0.0107 -0.4169  0.3939
19502SOL    HW159947   0.814   3.026  10.719  3.3122 -1.0755  0.6822
19502SOL    HW259948   0.793   3.115  10.598 -2.0166 -1.3225  1.1975
19503SOL     OW59949   6.865   4.179   1.064 -0.2810  0.0205  0.0871
19503SOL    HW159950   6.916   4.226   1.130 -0.9995  1.3186 -0.2462
19503SOL    HW259951   6.869   4.235   0.986  0.6169 -1.5137 -1.0235
19504SOL     OW59952   0.875   4.752  10.118  0.1130 -0.0193 -0.3511
19504SOL    HW159953   0.893   4.833  10.070 -0.4967  1.1492  1.2781
19504SOL    HW259954   0.959   4.726  10.154  0.3428 -0.2154 -1.0139
19505SOL     OW59955   2.525   1.170   4.784  0.6087  0.5083 -0.3505
19505SOL    HW159956   2.553   1.221   4.860  3.2823 -0.4455 -0.5642
19505SOL    HW259957   2.557   1.081   4.803 -2.1337 -0.6737 -0.8748
19506SOL     OW59958   4.461   3.126   1.514 -0.2379  0.0852  0.2564
19506SOL    HW159959   4.532   3.098   1.457 -0.3880 -0.4510  0.3270
19506SOL    HW259960   4.392   3.154   1.454 -0.1375  0.1739  0.1831
19507SOL     OW59961   5.356   1.731   1.384 -0.3717 -0.2146  1.1550
19507SOL    HW159962   5.356   1.721   1.289 -1.4775 -0.0343  1.1221
19507SOL    HW259963   5.410   1.658   1.416  1.8005  0.9285  0.3140
19508SOL     OW59964   0.637   4.834   5.229 -0.1757 -0.1629 -0.3010
19508SOL    HW159965   0.733   4.837   5.222 -0.1006 -0.1788  0.6559
19508SOL    HW259966   0.620   4.825   5.323 -1.1252  0.0892 -0.4424
19509SOL     OW59967   0.330   5.865  11.273 -0.2159  0.3931 -0.7694
19509SOL    HW159968   0.394   5.835  11.208 -0.2955 -1.1651 -0.1838
19509SOL    HW259969   0.252   5.812  11.255 -0.3749  0.2460  0.3199
19510SOL     OW59970   5.876   2.835   3.787  1.0841 -0.1203 -0.4212
19510SOL    HW159971   5.948   2.869   3.840 -0.9935  2.9580  0.7346
19510SOL    HW259972   5.824   2.784   3.849  0.2451  0.9804 -0.1837
19511SOL     OW59973   7.092   3.391   0.303  0.3191 -0.5566  0.2032
19511SOL    HW159974   7.171   3.426   0.262 -0.5976 -0.5064 -1.6219
19511SOL    HW259975   7.078   3.307   0.260 -1.4593  0.1314 -0.6552
19512SOL     OW59976   4.538   1.092   3.080 -0.7218 -0.5521  0.1552
19512SOL    HW159977   4.474   1.021   3.068 -1.4820  0.0972  0.3193
19512SOL    HW259978   4.573   1.078   3.168 -0.8787 -0.7136  0.1936
19513SOL     OW59979   0.426   4.463   0.610  0.2899  0.7600 -0.2482
19513SOL    HW159980   0.496   4.486   0.670  0.4240 -0.8406  0.2667
19513SOL    HW259981   0.430   4.367   0.604 -1.1904  0.7102 -1.0113
19514SOL     OW59982   4.235   6.442   9.725  0.2703 -0.3532  0.2594
19514SOL    HW159983   4.324   6.454   9.758  0.5446 -2.1926  0.3042
19514SOL    HW259984   4.206   6.360   9.765 -0.6489 -0.8797 -1.4069
19515SOL     OW59985   2.106   7.659   1.132  0.1908  0.1715  0.1058
19515SOL    HW159986   2.179   7.715   1.103 -0.6896  0.3580 -2.0076
19515SOL    HW259987   2.028   7.713   1.117 -0.5741 -1.0564 -0.5023
19516SOL     OW59988   1.399   1.221   9.889 -0.0273 -0.1613  0.1439
19516SOL    HW159989   1.346   1.285   9.935  2.0431  0.1839  2.2488
19516SOL    HW259990   1.384   1.139   9.936 -0.5361 -0.6150 -0.7873
19517SOL     OW59991   5.990   1.360   4.642  0.8421 -0.0249 -0.4135
19517SOL    HW159992   6.026   1.381   4.556  0.4387  0.5573 -0.4421
19517SOL    HW259993   5.936   1.436   4.665 -1.1668 -1.2372 -0.8067
19518SOL     OW59994   2.427   3.879  11.444 -0.4103  0.3303 -0.4528
19518SOL    HW159995   2.515   3.914  11.434 -0.9392  2.1045  0.7172
19518SOL    HW259996   2.440   3.786  11.465  1.1393  0.4717 -0.6924
19519SOL     OW59997   6.839   4.779  10.907 -0.6540 -0.5457  0.3598
19519SOL    HW159998   6.908   4.715  10.925  0.9211  1.0515  0.2050
19519SOL    HW259999   6.761   4.726  10.891  0.6282 -2.4270  0.0625
19520SOL     OW60000   7.227   7.063   0.949  0.0165 -0.4246  0.3397
19520SOL    HW160001   7.320   7.059   0.973  0.1070  0.0178  0.0776
19520SOL    HW260002   7.197   6.972   0.957  0.7625 -0.7911 -0.6738
19521SOL     OW60003   0.427   5.269   6.371  0.0368  0.2467  0.4537
19521SOL    HW160004   0.428   5.250   6.464 -1.5890 -1.5769  0.1732
19521SOL    HW260005   0.488   5.342   6.360  0.7138  0.1126  2.8308
19522SOL     OW60006   3.868   3.239   6.269 -0.0204 -0.2234 -0.6991
19522SOL    HW160007   3.786   3.194   6.249 -0.7207  0.3282  0.7909
19522SOL    HW260008   3.841   3.326   6.299  0.8944 -0.8393  2.2122
19523SOL     OW60009   5.154   5.308   5.503 -0.3509 -0.1407 -0.1396
19523SOL    HW160010   5.156   5.321   5.408 -1.9839  0.8102 -0.0744
19523SOL    HW260011   5.160   5.213   5.514 -0.5266 -0.2898 -1.2156
19524SOL     OW60012   6.807   5.546   2.225  0.2718 -0.3230 -0.6205
19524SOL    HW160013   6.729   5.581   2.268  0.8600  0.1088  0.1225
19524SOL    HW260014   6.847   5.622   2.182  0.9579 -0.2659  0.0782
19525SOL     OW60015   2.870   6.925   5.048  0.5923 -0.6680 -0.1385
19525SOL    HW160016   2.785   6.965   5.070  0.6534 -0.3753 -0.4143
19525SOL    HW260017   2.881   6.855   5.112  0.9165  0.3574  0.9880
19526SOL     OW60018   0.002   0.002   4.004  0.2124 -0.1339 -0.2204
19526SOL    HW160019   0.075   0.024   4.061 -1.0874 -0.4334  1.6660
19526SOL    HW260020   0.018  -0.088   3.978 -0.0142 -0.5894  1.1171
19527SOL     OW60021   7.024   4.846   7.930 -0.0188  0.4108  1.0566
19527SOL    HW160022   7.097   4.799   7.891 -0.1245  0.9160  0.2182
19527SOL    HW260023   6.987   4.785   7.994 -0.2041 -0.6886 -0.0529
19528SOL     OW60024   6.695   4.443   3.718  0.0301 -0.3220 -0.6261
19528SOL    HW160025   6.648   4.372   3.762 -0.5540  0.5600  0.2162
19528SOL    HW260026   6.761   4.471   3.781  0.0459  0.0846 -0.8150
19529SOL     OW60027   2.336   7.294   4.358  0.0819  0.0109  0.0256
19529SOL    HW160028   2.369   7.380   4.386  1.2749 -0.4257  0.0092
19529SOL    HW260029   2.408   7.234   4.374 -0.8402 -1.0527  0.2852
19530SOL     OW60030   5.536   0.112   6.076  0.0747 -0.4786 -0.2068
19530SOL    HW160031   5.490   0.068   6.148 -0.1099 -0.5449 -0.3640
19530SOL    HW260032   5.624   0.076   6.079  0.1452 -0.2763  0.1609
19531SOL     OW60033   5.856   6.617   4.886 -0.0928 -0.5364 -0.1365
19531SOL    HW160034   5.831   6.699   4.843  0.2879 -0.3565 -0.0160
19531SOL    HW260035   5.883   6.644   4.974  3.1744 -0.3237 -1.0584
19532SOL     OW60036   6.487   6.944   9.387  0.3482 -0.1623  0.4651
19532SOL    HW160037   6.554   6.931   9.320 -0.3896  0.4339 -0.4018
19532SOL    HW260038   6.423   6.875   9.371 -0.2305  0.4579  0.0361
19533SOL     OW60039   3.907   6.899   8.219 -0.5249  0.1018  0.0222
19533SOL    HW160040   3.997   6.932   8.227 -0.4479 -0.0887 -0.0297
19533SOL    HW260041   3.917   6.817   8.170 -0.8099  0.4804 -0.6939
19534SOL     OW60042   1.175   2.502  11.806 -0.8250 -0.4811 -0.0593
19534SOL    HW160043   1.104   2.561  11.782 -0.6010 -0.2048 -0.0488
19534SOL    HW260044   1.148   2.417  11.771 -0.8844 -0.2554 -0.5847
19535SOL     OW60045   4.409   3.923   2.838 -0.0424  0.0668  0.5809
19535SOL    HW160046   4.495   3.892   2.810 -0.7141 -0.1810 -1.3401
19535SOL    HW260047   4.357   3.844   2.852 -0.9580  0.1923 -1.7024
19536SOL     OW60048   4.176   1.611   9.532  0.6296 -0.0672 -0.1044
19536SOL    HW160049   4.092   1.568   9.549  0.2588  0.4351 -0.6478
19536SOL    HW260050   4.214   1.561   9.459  1.4754 -1.1941  1.0542
19537SOL     OW60051   4.792   4.147  11.851  0.2583 -0.3564 -0.0587
19537SOL    HW160052   4.859   4.120  11.788 -0.0474 -0.8388 -0.1804
19537SOL    HW260053   4.721   4.182  11.797  0.1230 -0.4904  0.0304
19538SOL     OW60054   2.599   2.552   7.211  0.5673 -0.3813  0.0814
19538SOL    HW160055   2.607   2.645   7.231 -0.6664 -0.3158  0.3874
19538SOL    HW260056   2.510   2.529   7.240  0.9504 -1.7163  0.2762
19539SOL     OW60057   7.762   0.205  10.864 -0.0422  0.2235 -0.4694
19539SOL    HW160058   7.722   0.158  10.937  0.5326  1.1437  0.4490
19539SOL    HW260059   7.690   0.216  10.801 -0.7383  0.1000  0.2842
19540SOL     OW60060   1.437   2.396   2.154  0.0208 -0.2913 -0.1117
19540SOL    HW160061   1.419   2.321   2.098 -0.0694 -0.0285 -0.4378
19540SOL    HW260062   1.424   2.472   2.097  0.5279 -0.0436  0.0969
19541SOL     OW60063   6.516   4.886   0.234  0.1072 -0.0765  0.2255
19541SOL    HW160064   6.552   4.818   0.290  0.1291 -0.3473 -0.1166
19541SOL    HW260065   6.581   4.897   0.164  0.0389  0.1934  0.2032
19542SOL     OW60066   5.306   6.959   8.830  0.3703  0.2988  0.4728
19542SOL    HW160067   5.362   7.022   8.785  1.1957 -1.3551 -0.9568
19542SOL    HW260068   5.219   6.973   8.792  0.3962  1.0156  0.6646
19543SOL     OW60069   5.070   3.453   9.268 -0.2579  0.1908  0.1314
19543SOL    HW160070   5.118   3.458   9.351  0.2540  1.5692 -0.2237
19543SOL    HW260071   5.059   3.544   9.241  0.1312 -0.2507 -1.6267
19544SOL     OW60072   3.251   2.922   3.974 -0.0735  0.0277  0.3549
19544SOL    HW160073   3.195   2.914   3.897  0.3414 -0.7699  0.1278
19544SOL    HW260074   3.215   2.998   4.021 -0.9212 -0.0558 -0.1250
19545SOL     OW60075   4.352   6.554   9.088 -0.1563  0.5106 -0.1103
19545SOL    HW160076   4.435   6.549   9.136 -0.6478  1.0087  0.8113
19545SOL    HW260077   4.335   6.463   9.061  0.2831  0.2676  0.3970
19546SOL     OW60078   0.562   2.510   0.365 -0.1546  0.1288  0.1507
19546SOL    HW160079   0.612   2.472   0.292 -0.2045  2.4556 -1.1907
19546SOL    HW260080   0.484   2.546   0.324 -0.2794  1.3311  1.3910
19547SOL     OW60081   1.865   0.704   2.775  0.0764  0.2643  0.4018
19547SOL    HW160082   1.803   0.642   2.737 -0.0321 -0.7906  2.1685
19547SOL    HW260083   1.951   0.666   2.760  0.0634  0.0715  0.8046
19548SOL     OW60084   7.321   6.028   7.913  0.2114 -0.1266  0.6425
19548SOL    HW160085   7.249   6.079   7.951 -0.7974  0.1398 -1.4816
19548SOL    HW260086   7.284   5.940   7.902  0.6486 -0.3210  0.7304
19549SOL     OW60087   4.560   3.435  10.896  0.1027  0.0122 -0.0806
19549SOL    HW160088   4.561   3.507  10.833  1.4048  0.9001  0.8880
19549SOL    HW260089   4.646   3.394  10.887  0.2336  0.0296  0.9650
19550SOL     OW60090   2.631   4.523  10.104 -0.3803 -0.1384 -0.2073
19550SOL    HW160091   2.654   4.593  10.042  2.2910 -0.9175 -0.2313
19550SOL    HW260092   2.664   4.554  10.188 -0.8511 -0.5801  0.1443
19551SOL     OW60093   1.798   6.657   1.091  0.1071  0.4121 -0.4682
19551SOL    HW160094   1.762   6.744   1.110 -1.0634 -0.1475 -0.0748
19551SOL    HW260095   1.832   6.626   1.175  0.5872  0.5100 -0.6225
19552SOL     OW60096   1.732   3.022  10.824 -0.0696 -0.0540 -0.2891
19552SOL    HW160097   1.826   3.033  10.812 -0.1866  1.5573  0.1008
19552SOL    HW260098   1.721   3.019  10.919 -0.2942 -1.6583 -0.3335
19553SOL     OW60099   3.177   1.087  10.667 -0.6875 -0.1563 -0.0080
19553SOL    HW160100   3.136   1.006  10.635 -1.9069  0.1095  0.8070
19553SOL    HW260101   3.208   1.066  10.755 -2.2734  0.5897  0.7926
19554SOL     OW60102   2.622   2.834   8.792 -0.3357 -0.8477 -0.1952
19554SOL    HW160103   2.558   2.795   8.733  0.5147 -2.1177 -0.3198
19554SOL    HW260104   2.570   2.873   8.862 -1.3615  0.6522 -1.7384
19555SOL     OW60105   5.053   4.594   5.556 -0.4772  0.3654 -0.3278
19555SOL    HW160106   5.129   4.572   5.504 -0.7232 -1.3598  0.0012
19555SOL    HW260107   4.983   4.607   5.492 -0.2399  0.5877 -0.5453
19556SOL     OW60108   2.186   7.671   6.036  0.3131  0.0138 -0.7443
19556SOL    HW160109   2.182   7.577   6.055 -0.9249  0.0055 -0.9584
19556SOL    HW260110   2.276   7.695   6.056  0.4150 -1.0295  0.1962
19557SOL     OW60111   5.378   2.383   1.681  0.0040  0.0100 -0.0362
19557SOL    HW160112   5.458   2.430   1.658  0.2915 -0.8501 -0.8219
19557SOL    HW260113   5.310   2.427   1.630  0.1926 -0.1094 -0.3932
19558SOL     OW60114   5.591   3.099   2.914 -0.0447 -0.1719  0.1291
19558SOL    HW160115   5.508   3.056   2.937 -1.1643  1.4467 -0.6184
19558SOL    HW260116   5.646   3.088   2.991 -1.1984 -0.7365  0.9047
19559SOL     OW60117   5.185   5.700   8.628 -0.2373  0.2878  0.0950
19559SOL    HW160118   5.276   5.725   8.608 -0.2871 -1.1669 -2.4031
19559SOL    HW260119   5.193   5.622   8.682  0.0515 -0.0927 -0.4785
19560SOL     OW60120   0.024   3.126   0.178 -0.6633 -0.0966 -0.8960
19560SOL    HW160121   0.028   3.094   0.088 -1.3453  0.2378 -1.0518
19560SOL    HW260122  -0.051   3.185   0.179 -1.9193 -1.6047  0.3678
19561SOL     OW60123   2.602   3.425  10.173  0.3525 -0.4653 -0.6164
19561SOL    HW160124   2.617   3.489  10.104  0.9919  0.4487  0.3423
19561SOL    HW260125   2.687   3.384  10.188  0.2895 -0.4284 -0.1426
19562SOL     OW60126   2.513   5.745   5.138 -0.1028  0.2546  0.2088
19562SOL    HW160127   2.550   5.662   5.109 -0.6260  0.0993 -0.0311
19562SOL    HW260128   2.420   5.726   5.152 -0.2599  0.8344 -0.0117
19563SOL     OW60129   6.579   0.655  10.011  0.0492  0.1320 -0.2081
19563SOL    HW160130   6.619   0.568  10.005 -1.8330 -0.8053  0.0649
19563SOL    HW260131   6.485   0.638  10.013 -0.3396  2.0216  2.4424
19564SOL     OW60132   7.269   7.139   8.061 -0.1776 -0.1773  0.0516
19564SOL    HW160133   7.285   7.230   8.038 -1.0259 -0.0942 -0.2767
19564SOL    HW260134   7.336   7.089   8.014  0.1789  0.2584  0.0959
19565SOL     OW60135   1.719   7.297   6.466 -0.0509  0.1803  0.7463
19565SOL    HW160136   1.664   7.250   6.404  1.8991 -2.4403  0.8070
19565SOL    HW260137   1.747   7.375   6.419 -0.4340 -0.5882 -0.8393
19566SOL     OW60138   0.366   4.584   7.563  0.8647  0.5410 -0.5823
19566SOL    HW160139   0.337   4.597   7.653  1.1079  2.0608 -0.6992
19566SOL    HW260140   0.434   4.650   7.550  1.3617 -0.1516 -1.6543
19567SOL     OW60141   7.182   2.876   7.669 -0.0228  0.1760 -0.1279
19567SOL    HW160142   7.202   2.850   7.579  0.3069 -0.5665  0.1483
19567SOL    HW260143   7.092   2.847   7.682  0.7681 -2.2338  0.6263
19568SOL     OW60144   4.718   1.456   3.443  0.2837 -0.1503  0.2445
19568SOL    HW160145   4.634   1.437   3.486  0.8838  0.0679  1.5698
19568SOL    HW260146   4.730   1.550   3.453  0.2755 -0.0348 -0.7446
19569SOL     OW60147   6.820   7.212   3.544 -0.4720 -0.0180 -0.7537
19569SOL    HW160148   6.761   7.206   3.469  0.2848 -0.2791 -1.3411
19569SOL    HW260149   6.808   7.301   3.578  1.4671  1.2600 -3.1210
19570SOL     OW60150   2.620   3.440   1.207 -0.1125  0.5190  0.3471
19570SOL    HW160151   2.533   3.460   1.174 -0.1940  1.3474  1.0352
19570SOL    HW260152   2.679   3.494   1.155  0.2358 -1.5140 -1.5145
19571SOL     OW60153   4.870   6.148   8.408 -0.1100 -0.1393  0.2845
19571SOL    HW160154   4.905   6.086   8.345 -0.3005 -0.9476  0.9559
19571SOL    HW260155   4.785   6.112   8.433 -0.1341  0.2810  0.8379
19572SOL     OW60156   7.817   4.163   9.270 -0.1043  0.5348  0.0435
19572SOL    HW160157   7.832   4.246   9.224 -0.2623  0.7995  0.4648
19572SOL    HW260158   7.725   4.143   9.252 -0.3105  0.9079  0.6770
19573SOL     OW60159   3.583   5.599   1.700  0.1162  0.6775 -0.1706
19573SOL    HW160160   3.502   5.642   1.674 -0.3473  0.5026  0.9141
19573SOL    HW260161   3.564   5.505   1.693 -0.0694  0.6205  0.8609
19574SOL     OW60162   5.741   2.304   0.174 -0.1630 -0.5787  0.0727
19574SOL    HW160163   5.731   2.373   0.239 -0.5628  0.8917 -1.5126
19574SOL    HW260164   5.815   2.332   0.120 -0.7110 -1.0906 -0.9626
19575SOL     OW60165   7.483   1.253   7.480 -0.4943  0.7359  0.4026
19575SOL    HW160166   7.514   1.329   7.529 -2.5267  1.6638  0.3249
19575SOL    HW260167   7.542   1.248   7.405  1.8485  0.0757  2.1552
19576SOL     OW60168   2.796   3.190   1.835  0.0072 -0.1123  0.6561
19576SOL    HW160169   2.778   3.191   1.929 -0.2812  0.8003  0.5977
19576SOL    HW260170   2.718   3.150   1.796 -0.6846  1.1900  0.6578
19577SOL     OW60171   0.755   6.943   8.598  0.4645  0.1775  0.2773
19577SOL    HW160172   0.807   6.904   8.668 -2.0600 -3.2924  0.4919
19577SOL    HW260173   0.698   7.005   8.643 -2.1264 -3.0053  1.8661
19578SOL     OW60174   3.228   4.035   9.168  0.2619  0.0734 -0.2451
19578SOL    HW160175   3.256   4.103   9.107 -0.0758 -0.2589 -0.7721
19578SOL    HW260176   3.223   3.955   9.116  1.8656 -0.6581  0.6154
19579SOL     OW60177   3.813   2.920  11.529  0.6498 -0.1413 -0.2251
19579SOL    HW160178   3.827   2.949  11.439 -1.1054  0.2213 -0.4158
19579SOL    HW260179   3.858   2.835  11.534 -0.5924 -0.9709 -1.9547
19580SOL     OW60180   1.710   0.463  11.452  0.0897  0.0911  0.2286
19580SOL    HW160181   1.722   0.482  11.359 -2.3673  0.7571 -0.0172
19580SOL    HW260182   1.785   0.409  11.476  1.5417  1.0949 -1.7705
19581SOL     OW60183   6.303   5.745   6.423 -0.5137 -0.5524 -1.0626
19581SOL    HW160184   6.377   5.803   6.405  0.2506 -0.9861  0.5139
19581SOL    HW260185   6.340   5.675   6.477 -2.3915  0.2068  1.4036
19582SOL     OW60186   7.667   2.091   3.536 -0.0362  0.7741 -0.1677
19582SOL    HW160187   7.739   2.152   3.522  0.6967  0.4046  1.6555
19582SOL    HW260188   7.696   2.010   3.495 -0.1461  1.0716 -0.8542
19583SOL     OW60189   3.759   4.642   2.118  0.3009  0.3586  0.3613
19583SOL    HW160190   3.754   4.653   2.213 -1.9057  2.0607  0.1342
19583SOL    HW260191   3.723   4.555   2.102  0.9884 -0.0774  1.0578
19584SOL     OW60192   2.447   5.664   8.966  0.1311 -0.1368 -0.6172
19584SOL    HW160193   2.414   5.692   8.881 -0.0346  0.8676 -0.2408
19584SOL    HW260194   2.445   5.568   8.963 -0.1806 -0.1070 -1.6137
19585SOL     OW60195   5.633   1.183   9.354 -0.0246 -0.3076 -0.5269
19585SOL    HW160196   5.667   1.269   9.381 -0.4848 -0.1095 -0.5686
19585SOL    HW260197   5.669   1.122   9.418 -1.9002  0.2767  1.1813
19586SOL     OW60198   0.397   1.335   3.376 -0.2668  0.1532  0.2321
19586SOL    HW160199   0.324   1.290   3.334 -0.5152  0.9012 -0.1664
19586SOL    HW260200   0.358   1.382   3.449  0.2887 -1.7868  1.8459
19587SOL     OW60201   4.041   4.477   1.455  0.2553  0.3403  0.1467
19587SOL    HW160202   4.081   4.394   1.432 -1.3809 -0.5731  0.4142
19587SOL    HW260203   3.948   4.457   1.467  0.0198  1.9343  1.5579
19588SOL     OW60204   0.289   7.900   8.244 -0.0883  0.1091 -0.5028
19588SOL    HW160205   0.256   7.903   8.334  0.7431 -1.5101 -0.1037
19588SOL    HW260206   0.355   7.969   8.240 -0.7783  0.8102 -0.1722
19589SOL     OW60207   0.959   6.036  10.661  0.6767  0.2607  0.0003
19589SOL    HW160208   1.045   6.018  10.624 -0.0740 -0.9300 -1.2768
19589SOL    HW260209   0.928   5.951  10.693 -0.6338  0.3537 -0.9414
19590SOL     OW60210   3.618   1.207  10.549 -0.1884  0.3623  0.0069
19590SOL    HW160211   3.672   1.135  10.582  0.5228  0.4534 -0.9160
19590SOL    HW260212   3.591   1.255  10.627  0.6852  0.0423  0.5207
19591SOL     OW60213   2.848   7.780   1.347  0.6378 -0.2195 -0.1683
19591SOL    HW160214   2.907   7.727   1.399  1.1311  0.4555 -0.0243
19591SOL    HW260215   2.761   7.753   1.374  0.8421 -1.9179 -1.0675
19592SOL     OW60216   7.272   1.893  12.433 -0.2631 -0.3769 -0.3968
19592SOL    HW160217   7.206   1.950  12.473  0.2232  2.6205 -3.3757
19592SOL    HW260218   7.343   1.889  12.497 -0.9286  1.3234  0.5061
19593SOL     OW60219   4.473   7.398  11.947  0.4418  0.8046 -0.2199
19593SOL    HW160220   4.394   7.432  11.906  0.0302 -0.1137 -0.2026
19593SOL    HW260221   4.541   7.462  11.924 -0.1723  1.2812 -0.7490
19594SOL     OW60222   5.404   5.557   8.216 -0.0570  0.0980 -0.6368
19594SOL    HW160223   5.335   5.490   8.213 -0.1240  0.0079  1.2073
19594SOL    HW260224   5.454   5.545   8.136 -1.6174 -0.4508 -1.5818
19595SOL     OW60225   0.112   4.359   5.704 -0.5047  0.0730 -0.2093
19595SOL    HW160226   0.067   4.435   5.667 -0.1433 -0.8746 -2.8662
19595SOL    HW260227   0.146   4.313   5.627  1.7411 -1.2620  1.4847
19596SOL     OW60228   6.522   1.275   6.416 -0.1797  0.1099 -0.1622
19596SOL    HW160229   6.430   1.258   6.436  0.1571 -0.5008  0.9909
19596SOL    HW260230   6.522   1.360   6.373 -1.1939  0.6339  0.8137
19597SOL     OW60231   6.017   4.912   3.766 -0.2345 -0.1037  0.2676
19597SOL    HW160232   6.073   4.845   3.727  0.1945 -0.2847  1.1892
19597SOL    HW260233   5.972   4.867   3.838 -0.7051  0.3419  0.2609
19598SOL     OW60234   4.538   7.009   9.748  0.1419 -0.2253  0.4101
19598SOL    HW160235   4.572   6.920   9.752  1.3989  0.1661 -0.7733
19598SOL    HW260236   4.465   7.003   9.686  1.8039 -0.0373 -1.7085
19599SOL     OW60237   0.661   2.630   1.504  0.5847 -0.0545  0.1131
19599SOL    HW160238   0.567   2.611   1.514  0.5315  0.8293  1.6784
19599SOL    HW260239   0.665   2.725   1.492  1.3328  0.1279  1.5694
19600SOL     OW60240   7.625   6.313   4.682 -0.0531 -0.1902 -0.1814
19600SOL    HW160241   7.643   6.224   4.651 -1.1131  0.1800 -2.0194
19600SOL    HW260242   7.538   6.307   4.722  0.6715 -0.3443  1.4217
19601SOL     OW60243   4.769   2.471   9.036 -0.1891 -0.1599  0.2623
19601SOL    HW160244   4.723   2.554   9.047  0.0791  0.1935 -1.0921
19601SOL    HW260245   4.793   2.469   8.943  1.7582 -0.7412  0.7418
19602SOL     OW60246   1.422   4.785   2.762  0.2120  0.1504  0.6708
19602SOL    HW160247   1.509   4.805   2.726  1.1648 -0.3988  2.5267
19602SOL    HW260248   1.440   4.758   2.852 -1.8181 -0.8261  0.8206
19603SOL     OW60249   3.793   4.556  11.282 -0.2540  0.4562 -0.0515
19603SOL    HW160250   3.871   4.584  11.234 -0.7231 -3.0128 -3.3712
19603SOL    HW260251   3.825   4.498  11.350  0.1672  0.8972  0.1264
19604SOL     OW60252   2.831   1.601  10.026  0.2395 -0.7836 -0.3166
19604SOL    HW160253   2.768   1.545  10.072 -0.6600  0.9066  0.6120
19604SOL    HW260254   2.832   1.682  10.077  0.9262  0.3357 -2.0317
19605SOL     OW60255   5.282   4.705   7.373 -0.0215  0.5478 -0.6324
19605SOL    HW160256   5.325   4.704   7.288 -1.4091  1.2947 -1.3743
19605SOL    HW260257   5.204   4.650   7.361 -0.0626  0.4001  0.2573
19606SOL     OW60258   7.274   5.908   1.663 -0.1895  0.5702 -0.1547
19606SOL    HW160259   7.310   5.989   1.626 -0.6392 -0.5896 -3.5249
19606SOL    HW260260   7.185   5.904   1.628 -1.1086 -0.1646  2.1115
19607SOL     OW60261   1.684   7.026  10.827 -0.2454 -0.1481  0.1050
19607SOL    HW160262   1.707   7.103  10.776  2.1435 -0.1905  0.9703
19607SOL    HW260263   1.767   6.980  10.839 -0.8751 -0.7310  2.9786
19608SOL     OW60264   7.582   3.045  11.083  0.0301  0.3778  0.0258
19608SOL    HW160265   7.562   2.958  11.048 -2.4732 -0.4497  2.9981
19608SOL    HW260266   7.672   3.040  11.112 -0.5606 -1.8986  1.6792
19609SOL     OW60267   0.008   2.611   8.781 -0.8763 -0.1735 -0.6494
19609SOL    HW160268  -0.084   2.618   8.807 -0.8380 -1.5682 -0.0981
19609SOL    HW260269   0.005   2.603   8.685 -1.2465  0.8777 -0.7417
19610SOL     OW60270   4.311   0.824   0.154  0.1735 -0.0770  0.2373
19610SOL    HW160271   4.245   0.767   0.193 -1.0411  0.9378 -0.2649
19610SOL    HW260272   4.381   0.827   0.219 -0.0358 -1.5667  0.5687
19611SOL     OW60273   0.810   2.894   8.004 -0.1038 -0.1276 -0.6667
19611SOL    HW160274   0.825   2.989   7.999 -2.0295  0.1610 -1.8319
19611SOL    HW260275   0.774   2.880   8.092 -0.0606  0.2600 -0.5855
19612SOL     OW60276   4.603   5.122   5.568  0.5502  0.9231  0.8115
19612SOL    HW160277   4.517   5.153   5.542  0.6763  2.5337  2.1488
19612SOL    HW260278   4.664   5.162   5.505  0.3472 -0.3663 -0.2478
19613SOL     OW60279   6.960   1.978   9.484  0.1513 -0.3346  0.0464
19613SOL    HW160280   6.994   2.066   9.467  0.2717 -0.1077  1.3090
19613SOL    HW260281   7.037   1.927   9.511 -0.1652 -0.3824  0.8877
19614SOL     OW60282   2.663   7.414   9.600 -0.4998 -0.0310 -0.0612
19614SOL    HW160283   2.755   7.421   9.624 -0.6307 -1.1757  0.8651
19614SOL    HW260284   2.663   7.421   9.504  0.7903 -1.9632 -0.2657
19615SOL     OW60285   1.860   3.074   7.731  0.2854 -0.0805  0.2928
19615SOL    HW160286   1.938   3.071   7.676 -0.3944 -0.2303 -0.6852
19615SOL    HW260287   1.882   3.134   7.802  1.0542  0.3935 -0.3385
19616SOL     OW60288   3.270   4.648   1.763  0.2510  0.5341 -0.4438
19616SOL    HW160289   3.302   4.678   1.678 -0.4631 -0.5237 -1.1165
19616SOL    HW260290   3.261   4.554   1.753  2.5118  0.0147  1.6386
19617SOL     OW60291   1.135   2.325   7.817 -0.1637  0.4340  0.0428
19617SOL    HW160292   1.133   2.358   7.907  0.6059  0.1087  0.1869
19617SOL    HW260293   1.159   2.401   7.765  0.8385  0.3018  0.2884
19618SOL     OW60294   5.519   0.062   1.650  0.1214 -0.2427  0.4572
19618SOL    HW160295   5.429   0.040   1.627  0.2743  0.2021 -0.6494
19618SOL    HW260296   5.516   0.084   1.743 -0.6233 -1.7043  0.8044
19619SOL     OW60297   1.089   6.977   6.689  0.1074 -0.2281  0.8219
19619SOL    HW160298   1.053   6.904   6.637  0.6092 -1.1157  1.6815
19619SOL    HW260299   1.178   6.948   6.711 -0.4400 -0.3595  3.0501
19620SOL     OW60300   4.309   0.671   5.573 -0.0841  0.4222 -0.2867
19620SOL    HW160301   4.317   0.732   5.647 -0.2697  1.5049 -1.1218
19620SOL    HW260302   4.348   0.719   5.499  1.3955 -1.1800 -0.6187
19621SOL     OW60303   1.848   0.569   8.808  0.8460 -0.1430  0.4127
19621SOL    HW160304   1.777   0.597   8.866  1.2026  0.8731  0.3825
19621SOL    HW260305   1.912   0.640   8.813  2.4668 -1.6030  1.4104
19622SOL     OW60306   3.359   0.788   3.090 -0.1564 -0.0529  0.1587
19622SOL    HW160307   3.273   0.788   3.048 -0.0454 -0.5103 -0.0721
19622SOL    HW260308   3.340   0.809   3.181 -0.5821 -0.8034  0.2494
19623SOL     OW60309   5.553   3.080   9.665 -0.2026 -0.4103 -0.5050
19623SOL    HW160310   5.498   3.157   9.649 -0.6732 -0.1145  2.1688
19623SOL    HW260311   5.632   3.096   9.612 -1.9512 -0.1325 -3.2474
19624SOL     OW60312   5.000   2.074   5.302 -0.3313 -0.5855  0.2193
19624SOL    HW160313   5.052   2.131   5.359  1.0527 -2.3822  0.8372
19624SOL    HW260314   5.028   2.098   5.213  0.0016 -0.0975  0.4524
19625SOL     OW60315   3.068   0.829  11.598 -0.0233  0.4910  0.0453
19625SOL    HW160316   3.125   0.797  11.667  0.2689  3.1551  1.1490
19625SOL    HW260317   3.114   0.903  11.560 -0.9694  0.1761 -1.8488
19626SOL     OW60318   7.847   0.899   1.564  0.3235 -0.0730  0.4002
19626SOL    HW160319   7.837   0.809   1.532  2.6861 -1.5534  3.2684
19626SOL    HW260320   7.923   0.933   1.516 -1.4141  1.0448 -1.7222
19627SOL     OW60321   3.743   7.688   7.027 -0.1770 -0.5673 -0.4538
19627SOL    HW160322   3.821   7.633   7.035  0.5970  0.5057 -0.5691
19627SOL    HW260323   3.757   7.760   7.089 -1.5834 -0.9366  0.3535
19628SOL     OW60324   3.640   0.178   7.394  0.3862 -0.0442 -0.3827
19628SOL    HW160325   3.673   0.156   7.481 -1.1342  2.2553  0.8882
19628SOL    HW260326   3.603   0.265   7.405 -2.0025 -0.6598 -2.7740
19629SOL     OW60327   1.458   4.550   8.928  0.4080 -0.0657  0.0640
19629SOL    HW160328   1.494   4.593   9.005 -0.0358  0.7013 -0.1443
19629SOL    HW260329   1.383   4.604   8.903  1.0290  0.1819 -1.4031
19630SOL     OW60330   4.049   5.753   6.659  0.4430  0.1472  0.3483
19630SOL    HW160331   4.088   5.817   6.718 -0.8222  0.3057  1.0424
19630SOL    HW260332   4.076   5.782   6.572  0.2265  1.4138  0.6733
19631SOL     OW60333   7.894   0.383   2.473  0.4323  0.2161 -0.2707
19631SOL    HW160334   7.839   0.456   2.504 -0.2873 -0.1449 -0.6836
19631SOL    HW260335   7.842   0.341   2.405  1.0088 -0.4561 -0.3034
19632SOL     OW60336   7.163   5.585   9.379 -0.0266 -0.2128  0.0486
19632SOL    HW160337   7.103   5.563   9.451 -0.8100 -1.2472 -0.8862
19632SOL    HW260338   7.106   5.618   9.310  0.8493  2.1205  0.3364
19633SOL     OW60339   7.525   7.552   3.397 -0.4782 -0.1290  0.2074
19633SOL    HW160340   7.535   7.471   3.347  0.3157  0.3379 -0.4319
19633SOL    HW260341   7.435   7.580   3.380 -0.5596 -0.5511 -0.0710
19634SOL     OW60342   4.185   2.961   4.251  0.1872  0.0784 -0.1820
19634SOL    HW160343   4.190   2.893   4.183 -0.2743 -0.5190  0.3708
19634SOL    HW260344   4.275   2.969   4.283  0.0513 -1.1786  0.5987
19635SOL     OW60345   4.008   0.748   2.399 -0.8297 -0.3967  0.2504
19635SOL    HW160346   4.009   0.822   2.460  0.4400  0.5792 -0.8769
19635SOL    HW260347   4.072   0.686   2.434 -0.4980 -0.0829  0.2059
19636SOL     OW60348   4.100   4.224   5.947  0.1446  0.1641  0.2281
19636SOL    HW160349   4.140   4.261   5.867  1.0627  0.5658  0.8520
19636SOL    HW260350   4.144   4.140   5.958 -0.3177 -0.1032  0.0648
19637SOL     OW60351   3.940   6.778   3.071 -0.0382  0.8354 -0.0006
19637SOL    HW160352   3.992   6.701   3.052  0.4623  0.7406  1.5864
19637SOL    HW260353   3.850   6.746   3.078  0.1921  0.3320  0.8411
19638SOL     OW60354   7.951   6.674   5.193 -0.0520  0.1282 -0.5055
19638SOL    HW160355   8.019   6.698   5.255  0.4226 -1.2263 -0.4716
19638SOL    HW260356   7.879   6.735   5.210  1.7029  2.6853 -1.6343
19639SOL     OW60357   6.054   1.180   2.396 -0.1922 -0.1366 -0.3911
19639SOL    HW160358   6.024   1.177   2.306 -0.0644 -0.5446 -0.4212
19639SOL    HW260359   6.005   1.252   2.436 -1.0357 -0.6505 -0.4943
19640SOL     OW60360   3.408   1.347   3.221 -0.2598 -0.2758 -0.0497
19640SOL    HW160361   3.407   1.258   3.186 -0.7132 -0.0464 -0.6566
19640SOL    HW260362   3.366   1.400   3.152  1.0513  0.5961 -0.2253
19641SOL     OW60363   6.952   5.510   6.097 -0.0926 -0.2556 -0.2185
19641SOL    HW160364   6.879   5.454   6.072 -0.3936  1.1108 -2.6683
19641SOL    HW260365   6.911   5.586   6.137  0.2635 -1.1247  1.9729
19642SOL     OW60366   4.782   1.903  11.274  1.0568  0.1292 -0.5747
19642SOL    HW160367   4.689   1.883  11.279  0.8731  1.2505  0.8597
19642SOL    HW260368   4.803   1.943  11.358  2.6060  0.8468 -1.2662
19643SOL     OW60369   3.151   4.058   5.152 -0.4323  0.1924 -0.4293
19643SOL    HW160370   3.233   4.054   5.202 -0.3784  0.0818 -0.5272
19643SOL    HW260371   3.173   4.023   5.066 -0.4167  0.8302 -0.6850
19644SOL     OW60372   3.261   7.811   0.735 -0.1467  0.0149  0.3431
19644SOL    HW160373   3.223   7.889   0.694  0.6496  1.8097  2.7522
19644SOL    HW260374   3.187   7.766   0.775 -0.2618  1.5467  1.9705
19645SOL     OW60375   1.448   4.877   5.526 -0.1850  0.1022  0.1669
19645SOL    HW160376   1.396   4.812   5.574 -1.4293  0.5336 -0.5374
19645SOL    HW260377   1.457   4.841   5.438 -0.9248  0.8828 -0.2415
19646SOL     OW60378   6.951   2.044   1.838 -0.2246 -0.3504 -0.3118
19646SOL    HW160379   6.908   2.066   1.921 -0.4384 -1.8783  0.0289
19646SOL    HW260380   7.014   2.115   1.823 -0.4119  0.1153  0.9988
19647SOL     OW60381   5.082   3.274   2.431 -0.2243 -0.3022 -0.0181
19647SOL    HW160382   5.103   3.328   2.355  1.1195  0.1098  0.6330
19647SOL    HW260383   5.069   3.186   2.395  0.5987 -0.1482 -0.7043
19648SOL     OW60384   3.534   5.254   7.289 -0.4360  0.4201  0.0250
19648SOL    HW160385   3.491   5.242   7.374  1.1468 -1.5846  0.6117
19648SOL    HW260386   3.623   5.221   7.303  0.5672  2.1671 -1.8120
19649SOL     OW60387   3.616   0.427   4.661  0.2500 -0.1570  0.4293
19649SOL    HW160388   3.599   0.519   4.642 -2.3870 -0.9741 -1.7640
19649SOL    HW260389   3.564   0.408   4.739 -1.0898 -0.2625 -0.4525
19650SOL     OW60390   5.704   3.108   0.744  0.3076  0.5365  0.1892
19650SOL    HW160391   5.679   3.079   0.657  0.3090 -0.3139  0.4640
19650SOL    HW260392   5.687   3.033   0.800 -2.0385  1.8248  1.3668
19651SOL     OW60393   4.652   5.497   0.899 -0.1371 -0.1426 -0.1096
19651SOL    HW160394   4.622   5.409   0.922  0.3577 -0.1142  0.6382
19651SOL    HW260395   4.600   5.556   0.954 -1.0100  0.0956 -1.1428
19652SOL     OW60396   7.261   2.527  10.177 -0.7241 -0.0523  0.6101
19652SOL    HW160397   7.295   2.608  10.139  2.8926 -2.3519 -1.7857
19652SOL    HW260398   7.316   2.512  10.255 -1.6446 -0.0399  1.2776
19653SOL     OW60399   2.903   6.250   7.979 -0.2143 -0.0896  0.1553
19653SOL    HW160400   2.920   6.213   8.066 -0.5828 -0.5592  0.0329
19653SOL    HW260401   2.931   6.182   7.918 -0.0947  0.1804 -0.0925
19654SOL     OW60402   7.910   0.236  10.209 -0.0676 -0.0173  0.3305
19654SOL    HW160403   7.869   0.157  10.175 -0.6573  0.4271 -0.0135
19654SOL    HW260404   7.837   0.287  10.244  0.1032  1.0705 -0.8544
19655SOL     OW60405   3.888   1.830   3.599 -0.2345 -0.1274  0.1978
19655SOL    HW160406   3.900   1.903   3.660 -1.4126  0.2335  0.0275
19655SOL    HW260407   3.793   1.819   3.593 -0.2559  0.7098 -2.5719
19656SOL     OW60408   2.493   1.756  11.108 -0.4140 -0.1524  0.0254
19656SOL    HW160409   2.442   1.690  11.154 -0.9709  0.3175  0.0897
19656SOL    HW260410   2.543   1.800  11.178 -0.5146 -0.0905  0.0584
19657SOL     OW60411   1.674   2.443   3.176  0.6231  0.1832 -0.3203
19657SOL    HW160412   1.636   2.360   3.146  2.1406 -0.7267  0.1913
19657SOL    HW260413   1.629   2.462   3.258 -0.1831  0.2058 -0.7609
19658SOL     OW60414   0.224   3.464   1.916  0.0080  0.1465  0.1405
19658SOL    HW160415   0.144   3.412   1.921 -0.4018  0.7653  0.2008
19658SOL    HW260416   0.291   3.410   1.957 -0.2288 -0.6606 -0.5093
19659SOL     OW60417   3.988   5.392   6.146  0.6667 -0.4610  0.4469
19659SOL    HW160418   3.994   5.394   6.050  2.2788  0.1594  0.5302
19659SOL    HW260419   3.951   5.306   6.166 -1.5588  0.1547 -0.7832
19660SOL     OW60420   6.684   4.663  11.378  0.3212 -0.1899 -0.3576
19660SOL    HW160421   6.608   4.644  11.433  0.5373 -1.3208 -0.4158
19660SOL    HW260422   6.648   4.713  11.305 -0.1083  0.5958  0.3806
19661SOL     OW60423   1.881   1.175   3.785 -0.2606 -0.2275  0.1333
19661SOL    HW160424   1.819   1.240   3.820 -1.0612 -0.0192 -1.6046
19661SOL    HW260425   1.880   1.105   3.850 -0.7598  0.6820  1.1532
19662SOL     OW60426   3.154   5.031  10.643  0.1159  0.2398  0.3213
19662SOL    HW160427   3.141   5.031  10.738  3.3651  0.5968  0.8732
19662SOL    HW260428   3.172   5.122  10.621  0.7794 -0.0545 -0.3828
19663SOL     OW60429   2.284   1.338   3.893  0.0739 -0.0903  0.1979
19663SOL    HW160430   2.339   1.397   3.840 -0.3592  0.4493  0.3450
19663SOL    HW260431   2.235   1.287   3.828 -0.3092  0.4312  0.0679
19664SOL     OW60432   0.536   7.382   8.496  0.2040  0.9557  0.0694
19664SOL    HW160433   0.450   7.424   8.501 -1.2101 -1.5820 -0.8287
19664SOL    HW260434   0.556   7.380   8.402 -0.7174 -1.9001 -0.1687
19665SOL     OW60435   1.537   7.408   3.739 -0.6314 -0.3502 -0.0822
19665SOL    HW160436   1.517   7.315   3.729 -1.2522 -0.3440  1.0153
19665SOL    HW260437   1.602   7.412   3.808 -0.1734 -0.0086 -0.5267
19666SOL     OW60438   5.521   1.479   0.572 -0.2961 -0.2313  0.2764
19666SOL    HW160439   5.468   1.447   0.645 -0.6790  0.3392  0.2541
19666SOL    HW260440   5.570   1.402   0.542 -2.3059 -1.1631 -0.7493
19667SOL     OW60441   5.980   7.389   1.340 -0.2970  0.4453  0.1113
19667SOL    HW160442   6.047   7.333   1.301 -0.2548 -0.2257  1.1090
19667SOL    HW260443   5.902   7.334   1.344 -0.2125  0.3820  1.2410
19668SOL     OW60444   2.798   1.906   3.576  0.5010  0.5005 -0.3864
19668SOL    HW160445   2.797   1.880   3.484 -1.0577  0.9336 -0.5249
19668SOL    HW260446   2.726   1.857   3.615  0.4670  1.1249  0.3562
19669SOL     OW60447   5.761   1.032   3.721  0.1717  0.4612 -0.2298
19669SOL    HW160448   5.767   0.971   3.648 -0.1942 -0.8194  0.7758
19669SOL    HW260449   5.790   1.116   3.685  1.6608 -0.5047 -1.3956
19670SOL     OW60450   5.242   5.631   5.256  0.4603 -0.6848 -0.5402
19670SOL    HW160451   5.231   5.716   5.214 -0.1782  0.0125  0.9527
19670SOL    HW260452   5.173   5.577   5.218 -1.2997  0.4641  0.8475
19671SOL     OW60453   1.515   2.403   9.090  0.1541 -0.0038  0.1374
19671SOL    HW160454   1.507   2.319   9.135 -0.4306 -0.8482 -1.4468
19671SOL    HW260455   1.529   2.379   8.998 -1.8211  1.6033 -0.6597
19672SOL     OW60456   7.766   5.935   9.193 -0.1156  0.4631  0.1668
19672SOL    HW160457   7.853   5.923   9.232 -1.0586 -1.0181  1.9763
19672SOL    HW260458   7.747   6.028   9.206  0.8218  0.6104  0.6131
19673SOL     OW60459   4.570   4.884   1.154  0.0231  0.3072  0.2403
19673SOL    HW160460   4.478   4.861   1.167 -0.1140  1.1550  0.8734
19673SOL    HW260461   4.601   4.823   1.087 -0.7764 -0.5215  0.6062
19674SOL     OW60462   5.609   7.528   6.300 -0.0692 -0.2643 -0.1483
19674SOL    HW160463   5.621   7.469   6.226  0.5770 -0.8318  0.3926
19674SOL    HW260464   5.600   7.471   6.376 -1.3886  0.2953  0.1453
19675SOL     OW60465   6.403   7.436  10.504 -0.0277 -0.1697  1.1801
19675SOL    HW160466   6.477   7.493  10.527  0.1076 -0.6171  1.8929
19675SOL    HW260467   6.443   7.350  10.492 -0.5074 -0.5445  2.1854
19676SOL     OW60468   0.123   6.869   9.353  0.1095 -0.6216  0.3325
19676SOL    HW160469   0.183   6.916   9.295 -0.4128  1.7701  1.5822
19676SOL    HW260470   0.180   6.823   9.414  0.6549 -2.6940 -1.5932
19677SOL     OW60471   0.155   6.374   0.414 -0.0088 -0.0751  0.1302
19677SOL    HW160472   0.124   6.291   0.452  1.0330 -0.7409 -0.4189
19677SOL    HW260473   0.141   6.439   0.482  1.1681 -1.1098  1.3991
19678SOL     OW60474   7.346   2.300   7.613 -0.0357  0.1881  0.5279
19678SOL    HW160475   7.392   2.232   7.664 -1.9341  0.4637  2.8004
19678SOL    HW260476   7.261   2.261   7.593  1.1336 -0.5169 -4.0440
19679SOL     OW60477   0.455   0.593   3.749  0.1637 -0.0410  0.2596
19679SOL    HW160478   0.546   0.566   3.740  0.0920  0.3093 -1.9771
19679SOL    HW260479   0.437   0.646   3.672 -2.3084 -1.1796 -0.0696
19680SOL     OW60480   0.866   0.671   7.607  0.3934  0.0250 -0.2278
19680SOL    HW160481   0.937   0.623   7.651  0.2741 -0.8175 -0.9168
19680SOL    HW260482   0.809   0.700   7.677  0.2462 -1.2285  0.1948
19681SOL     OW60483   3.852   5.330   8.442  0.0532 -0.2040  0.1538
19681SOL    HW160484   3.917   5.310   8.509 -1.3161  1.6677  2.1885
19681SOL    HW260485   3.808   5.247   8.426  1.0516 -0.8970  0.8455
19682SOL     OW60486   7.087   1.640   6.590  0.9238 -0.4399 -0.1057
19682SOL    HW160487   7.165   1.586   6.578 -0.1533 -2.2840  0.7650
19682SOL    HW260488   7.022   1.601   6.531  0.2800  0.2477  0.1355
19683SOL     OW60489   5.973   7.809   8.879 -0.5254 -0.3169 -0.2743
19683SOL    HW160490   5.998   7.741   8.941 -2.0122 -0.7067 -0.0765
19683SOL    HW260491   5.967   7.764   8.795 -1.5902 -0.4696 -0.1295
19684SOL     OW60492   6.598   0.919  10.077 -0.4823 -0.1235 -0.2303
19684SOL    HW160493   6.604   0.823  10.075  0.2298 -0.0762 -1.5660
19684SOL    HW260494   6.647   0.944  10.156 -2.5664 -0.9308  1.4186
19685SOL     OW60495   4.049   6.039   6.153  0.1701 -0.4579  0.6252
19685SOL    HW160496   4.105   6.004   6.084 -0.7239  0.1746 -0.4536
19685SOL    HW260497   3.969   6.067   6.108  0.7062  2.7611  1.3939
19686SOL     OW60498   4.002   4.299  10.363  0.1396 -0.1076 -0.5132
19686SOL    HW160499   3.912   4.301  10.397  0.6764 -0.5021  1.0458
19686SOL    HW260500   4.002   4.229  10.298 -0.3418 -1.2352  0.6330
19687SOL     OW60501   5.442   4.841   9.532  0.4654 -0.0648  0.7351
19687SOL    HW160502   5.443   4.925   9.579 -0.4148 -0.4049  1.3719
19687SOL    HW260503   5.350   4.829   9.507  0.9583  0.3396 -1.5274
19688SOL     OW60504   3.076   0.876   1.643 -0.3695  0.3861  0.4154
19688SOL    HW160505   3.020   0.951   1.621  1.6633  1.7589 -0.3225
19688SOL    HW260506   3.124   0.904   1.721  0.0253 -0.3663  0.4537
19689SOL     OW60507   1.940   0.407   2.142 -0.0391  0.6300 -0.2402
19689SOL    HW160508   2.028   0.370   2.150  0.0951  1.0505  0.2634
19689SOL    HW260509   1.924   0.451   2.226 -0.9097  0.1673 -0.1516
19690SOL     OW60510   6.979   2.261   8.116  0.3964  0.1302 -0.0464
19690SOL    HW160511   7.005   2.193   8.055  0.1117  0.2602 -0.3112
19690SOL    HW260512   6.927   2.215   8.182 -1.5280  0.3958 -1.3069
19691SOL     OW60513   1.588   2.273  10.207  0.3826  0.0083  0.6026
19691SOL    HW160514   1.551   2.330  10.140  0.5955  0.5094  0.9104
19691SOL    HW260515   1.681   2.265  10.184  0.5650  0.5849  1.1154
19692SOL     OW60516   3.408   0.751   0.259  0.5917  0.2895  0.0417
19692SOL    HW160517   3.502   0.747   0.244  0.3895 -3.5747 -1.4849
19692SOL    HW260518   3.369   0.727   0.175 -1.7267  0.9135  0.8547
19693SOL     OW60519   0.570   5.705  10.061  0.9704 -0.4936  0.0217
19693SOL    HW160520   0.515   5.627  10.059  1.7675 -1.1092  0.9207
19693SOL    HW260521   0.518   5.772  10.017  0.3071 -1.5488 -0.8630
19694SOL     OW60522   7.931   5.717   9.880 -0.1732  0.2008 -0.1383
19694SOL    HW160523   7.994   5.688   9.946  0.0087 -1.4277 -0.9745
19694SOL    HW260524   7.925   5.643   9.819 -0.7352  1.4371 -1.6438
19695SOL     OW60525   6.643   5.977   1.328  0.1286  0.1325 -0.1150
19695SOL    HW160526   6.628   5.921   1.405  0.0548 -0.1268 -0.3164
19695SOL    HW260527   6.573   6.042   1.331 -1.1395 -1.1152 -1.1012
19696SOL     OW60528   1.080   2.223   8.131  0.0300  0.4075 -0.2480
19696SOL    HW160529   1.073   2.158   8.062  3.2178 -2.0563  1.4597
19696SOL    HW260530   1.086   2.172   8.212  1.2075  2.8697  1.3739
19697SOL     OW60531   2.103   3.048  11.473  0.4096 -0.5111 -0.5832
19697SOL    HW160532   2.082   3.002  11.391 -0.0085 -2.0996  0.3827
19697SOL    HW260533   2.033   3.113  11.482  0.8168  0.1258 -1.7987
19698SOL     OW60534   0.845   0.923   2.570 -0.4539 -0.0950 -0.0570
19698SOL    HW160535   0.919   0.966   2.526  0.0308 -1.4112 -0.5660
19698SOL    HW260536   0.771   0.938   2.511 -1.0462  2.5658  1.1702
19699SOL     OW60537   6.924   2.475   8.319 -0.1353 -0.1679 -0.0034
19699SOL    HW160538   6.927   2.407   8.252  0.1086 -0.7671  0.6017
19699SOL    HW260539   6.967   2.551   8.279 -0.2986 -0.4086 -0.6372
19700SOL     OW60540   1.735   0.228   5.006  0.2629 -0.6824  0.4238
19700SOL    HW160541   1.761   0.136   4.993  0.7467 -0.4467 -0.3399
19700SOL    HW260542   1.648   0.233   4.968  0.1624 -0.8631  0.6241
19701SOL     OW60543   1.049   7.180   0.620 -0.1142 -0.2044  0.4676
19701SOL    HW160544   1.027   7.235   0.696 -1.8699 -1.3437  0.8342
19701SOL    HW260545   1.020   7.231   0.544 -0.4150 -0.0126  0.7077
19702SOL     OW60546   0.026   4.362  11.072 -0.3537 -0.3032  0.2759
19702SOL    HW160547  -0.025   4.339  10.994  0.8230  0.7526 -0.8597
19702SOL    HW260548   0.100   4.301  11.071 -0.6826 -0.7206  0.9573
19703SOL     OW60549   0.389   6.386  10.994 -0.3133 -0.1777  0.1229
19703SOL    HW160550   0.341   6.355  11.070  0.2566  0.1683  0.6332
19703SOL    HW260551   0.463   6.436  11.030  0.5443 -0.8545 -0.6391
19704SOL     OW60552   4.885   7.551   4.325 -0.1905 -0.3800 -0.3351
19704SOL    HW160553   4.934   7.599   4.258 -1.5364  1.8549  0.1853
19704SOL    HW260554   4.874   7.463   4.289 -0.2784  0.5565 -2.7404
19705SOL     OW60555   0.448   0.959  10.458  0.9289  0.7150  0.0477
19705SOL    HW160556   0.454   1.054  10.462  0.7566  0.7506 -0.4353
19705SOL    HW260557   0.491   0.928  10.538 -1.1499  1.2851  1.4971
19706SOL     OW60558   0.447   1.726  10.879 -0.9004  0.0323  0.1734
19706SOL    HW160559   0.353   1.713  10.866 -0.9594  0.4597  0.1522
19706SOL    HW260560   0.485   1.707  10.793 -1.1733  1.7250 -0.3538
19707SOL     OW60561   3.491   4.252   1.621  0.4511  0.1688  0.0956
19707SOL    HW160562   3.500   4.250   1.716  0.0183  0.0755  0.1375
19707SOL    HW260563   3.546   4.179   1.590  0.7118  0.2944  0.2615
19708SOL     OW60564   6.012   7.660   1.312  0.8224 -0.4389 -1.0574
19708SOL    HW160565   6.108   7.659   1.310  0.8057 -1.1316 -1.5627
19708SOL    HW260566   5.986   7.568   1.320  0.2036 -0.2172 -0.2985
19709SOL     OW60567   4.258   1.855   7.911 -0.8959 -0.6163  0.1542
19709SOL    HW160568   4.226   1.934   7.869  2.6031  2.4114  2.5056
19709SOL    HW260569   4.187   1.828   7.970 -2.0744  0.8779 -0.5205
19710SOL     OW60570   4.082   4.499   6.896  0.0788  0.0026 -0.0953
19710SOL    HW160571   4.107   4.591   6.905  0.9042 -0.2250  0.0232
19710SOL    HW260572   4.164   4.451   6.905 -0.5481 -0.8549  1.3402
19711SOL     OW60573   1.140   1.491  12.038 -0.5337  0.2860 -0.0095
19711SOL    HW160574   1.177   1.529  12.118  1.1848  0.6063 -0.9192
19711SOL    HW260575   1.110   1.566  11.987  0.3911  0.2523 -0.6183
19712SOL     OW60576   3.127   6.724  11.491 -0.6940 -0.4068 -0.0378
19712SOL    HW160577   3.139   6.716  11.585 -2.7248  0.8368  0.3921
19712SOL    HW260578   3.215   6.736  11.457 -0.0465  0.8335  1.9111
19713SOL     OW60579   3.460   3.180   4.072  0.2610  0.4180  0.1423
19713SOL    HW160580   3.520   3.255   4.083  0.0889  0.6686 -0.5637
19713SOL    HW260581   3.500   3.129   4.002 -0.6388  0.8890 -0.7328
19714SOL     OW60582   3.003   1.826   1.282  0.4811 -0.0275  0.2728
19714SOL    HW160583   2.960   1.741   1.285 -1.8727  1.0634  2.8691
19714SOL    HW260584   2.950   1.877   1.221  0.7495  0.1117  0.1549
19715SOL     OW60585   5.557   4.591  11.837  0.4527 -0.1511 -0.6780
19715SOL    HW160586   5.620   4.608  11.907 -0.4672  1.2290 -0.1379
19715SOL    HW260587   5.569   4.663  11.776 -0.4425  0.0187 -0.6681
19716SOL     OW60588   5.210   7.167   9.338 -0.5088  0.1601 -0.5779
19716SOL    HW160589   5.299   7.180   9.370 -1.2711  0.0221  1.7991
19716SOL    HW260590   5.217   7.094   9.277  0.9025 -0.2875  0.0694
19717SOL     OW60591   2.409   7.838   2.602  0.0446  0.6825  0.1785
19717SOL    HW160592   2.408   7.894   2.524 -2.3460  0.2629 -0.1797
19717SOL    HW260593   2.316   7.826   2.623  0.5852 -1.0046  1.8177
19718SOL     OW60594   7.616   7.099   0.301  0.1169  0.2960 -0.0585
19718SOL    HW160595   7.647   7.189   0.312 -0.6513  0.5889 -0.2189
19718SOL    HW260596   7.523   7.108   0.282 -0.0229 -0.5487  0.1753
19719SOL     OW60597   7.248   4.089   2.594  0.0886  0.2078 -0.2407
19719SOL    HW160598   7.260   4.151   2.666  0.6896 -0.8341  0.5814
19719SOL    HW260599   7.327   4.036   2.594 -0.5467 -0.7744 -0.7042
19720SOL     OW60600   3.977   0.781  11.374 -0.2394  0.1360 -0.3078
19720SOL    HW160601   3.921   0.792  11.450  0.5327 -0.9406  0.4457
19720SOL    HW260602   4.042   0.851  11.381 -0.8179  0.7226 -0.6080
19721SOL     OW60603   3.981   5.061   5.948  0.4126  0.0014 -0.0756
19721SOL    HW160604   3.924   4.985   5.939  0.4552 -0.1007  0.4844
19721SOL    HW260605   3.999   5.089   5.858 -0.2985 -0.1248 -0.2601
19722SOL     OW60606   4.590   4.558   5.634  0.2825  0.6491  0.6054
19722SOL    HW160607   4.613   4.650   5.632 -2.8352  1.5322  0.3854
19722SOL    HW260608   4.575   4.539   5.727  0.1873  0.5759  0.5758
19723SOL     OW60609   2.830   5.282   8.474 -0.1638 -0.1164  0.2794
19723SOL    HW160610   2.781   5.360   8.446  0.8594 -0.4969 -3.0639
19723SOL    HW260611   2.879   5.311   8.551  0.1244  2.6170 -0.7865
19724SOL     OW60612   7.509   7.749   6.860 -0.7617  0.3838  0.2129
19724SOL    HW160613   7.539   7.661   6.884  1.7120  1.0707 -0.0453
19724SOL    HW260614   7.476   7.740   6.771 -0.5393 -0.2727  0.1897
19725SOL     OW60615   1.335   0.331   3.078  0.1123  0.6853  0.0321
19725SOL    HW160616   1.393   0.265   3.117  1.0901  1.4313 -0.1197
19725SOL    HW260617   1.395   0.395   3.038 -0.7495  2.2874  1.1886
19726SOL     OW60618   7.370   7.173   9.827 -0.0566  1.0595 -0.4413
19726SOL    HW160619   7.343   7.086   9.797 -0.4643  0.8724  0.4443
19726SOL    HW260620   7.399   7.217   9.747  1.2653 -0.2734 -0.7454
19727SOL     OW60621   3.746   3.095   0.758 -0.0642  0.3994 -0.1392
19727SOL    HW160622   3.774   3.032   0.691 -2.7283 -0.3528 -0.6844
19727SOL    HW260623   3.650   3.096   0.751 -0.5668 -0.1781  4.0775
19728SOL     OW60624   2.895   3.802   0.495  0.1104  0.5057 -0.2229
19728SOL    HW160625   2.916   3.718   0.536  0.2793  0.8297  0.3767
19728SOL    HW260626   2.932   3.796   0.407  1.4903  0.5116  0.3293
19729SOL     OW60627   6.126   4.254   6.191  0.4233  0.2198  0.1144
19729SOL    HW160628   6.139   4.160   6.198  0.1921  0.1513 -0.2953
19729SOL    HW260629   6.213   4.292   6.198  0.4352  0.0349  1.0973
19730SOL     OW60630   3.476   4.405  11.838  0.0862  0.1831  0.1961
19730SOL    HW160631   3.420   4.331  11.814 -0.3025  0.2898  0.7441
19730SOL    HW260632   3.501   4.387  11.929  0.9866  0.1142 -0.0633
19731SOL     OW60633   0.621   3.173   5.870  0.7595 -0.2146  0.3639
19731SOL    HW160634   0.529   3.149   5.873  0.6467 -0.5430 -2.5009
19731SOL    HW260635   0.636   3.201   5.779  3.4124  0.1463  0.8036
19732SOL     OW60636   6.246   3.486   2.832  0.2225 -0.6841 -0.2439
19732SOL    HW160637   6.278   3.455   2.916 -0.0353 -1.0325 -0.2711
19732SOL    HW260638   6.293   3.433   2.767 -0.5486 -1.3386 -0.2782
19733SOL     OW60639   5.849   4.216  12.065 -0.8701  0.0849  0.2622
19733SOL    HW160640   5.918   4.150  12.074 -0.5756  0.0961 -1.6741
19733SOL    HW260641   5.834   4.246  12.155 -0.5632 -2.1299  1.1255
19734SOL     OW60642   1.392   6.897   1.238  0.7809 -0.3337 -0.0572
19734SOL    HW160643   1.297   6.911   1.244  0.6925 -1.4451  1.4879
19734SOL    HW260644   1.427   6.983   1.215 -0.4728  0.4656  0.9123
19735SOL     OW60645   5.526   6.003   9.211 -0.1855  0.0606  0.0682
19735SOL    HW160646   5.612   5.965   9.195 -0.1621 -0.3203  1.0264
19735SOL    HW260647   5.493   5.956   9.288 -0.0918  2.0639  1.3990
19736SOL     OW60648   2.696   7.486  12.311 -0.3806 -0.4046 -0.0867
19736SOL    HW160649   2.734   7.455  12.230 -0.0684  0.6865 -0.3804
19736SOL    HW260650   2.771   7.501  12.369 -0.6114 -1.3199  0.4610
19737SOL     OW60651   4.768   1.640   9.033  0.3309  0.4389  0.4638
19737SOL    HW160652   4.850   1.620   8.989  0.2276 -0.1956  0.5594
19737SOL    HW260653   4.716   1.687   8.968 -0.0604 -1.0173 -0.3134
19738SOL     OW60654   6.816   0.491  10.019  0.2147  0.4629 -0.2437
19738SOL    HW160655   6.896   0.447   9.993  0.6808 -0.3311  2.2526
19738SOL    HW260656   6.842   0.582  10.032  0.0556  0.7924 -1.9370
19739SOL     OW60657   3.062   1.799   9.480  0.6441 -0.1420  0.3611
19739SOL    HW160658   3.085   1.892   9.482  0.7253  0.0003 -2.9470
19739SOL    HW260659   3.127   1.759   9.422 -0.1042 -2.0687  0.7723
19740SOL     OW60660   6.202   2.974  11.048  0.2999  0.4362  0.6117
19740SOL    HW160661   6.160   2.892  11.074 -1.5840  1.6678  1.6945
19740SOL    HW260662   6.295   2.960  11.066 -0.0835 -1.1796  1.5473
19741SOL     OW60663   5.703   3.011   8.831 -0.0259 -0.2851  0.0288
19741SOL    HW160664   5.760   3.057   8.894  0.4187  0.5406 -0.9369
19741SOL    HW260665   5.620   3.059   8.835 -0.0172 -0.2699  0.0297
19742SOL     OW60666   4.611   3.001   2.834  0.3729  0.2641  0.3572
19742SOL    HW160667   4.641   3.076   2.885  1.9971  0.4580 -0.7927
19742SOL    HW260668   4.691   2.962   2.799 -0.5493 -1.0534 -0.4020
19743SOL     OW60669   3.992   7.849   1.999 -0.3000 -0.2235  0.2355
19743SOL    HW160670   4.070   7.904   1.998  0.1099 -0.7921 -1.1857
19743SOL    HW260671   4.022   7.764   2.032 -0.3025 -0.4385 -0.2967
19744SOL     OW60672   2.091   6.687  10.765  0.2779 -0.2621 -0.3632
19744SOL    HW160673   2.042   6.616  10.807  0.5834 -0.0555  0.3707
19744SOL    HW260674   2.128   6.648  10.686 -0.5133 -0.6010 -0.5747
19745SOL     OW60675   1.476   1.636   8.625  0.6112 -0.4128 -0.4943
19745SOL    HW160676   1.494   1.543   8.612  0.8015 -0.3263 -0.8391
19745SOL    HW260677   1.487   1.676   8.539 -0.7871 -0.2850 -0.6475
19746SOL     OW60678   3.414   4.162   7.629 -0.5780 -0.0481  0.1808
19746SOL    HW160679   3.434   4.245   7.584 -0.5800  0.6961  1.5011
19746SOL    HW260680   3.330   4.179   7.673 -1.4186 -1.3193 -0.8408
19747SOL     OW60681   7.954   1.158  12.266  0.7111  0.2895  0.3604
19747SOL    HW160682   7.884   1.094  12.272  1.7979 -1.4208 -2.8385
19747SOL    HW260683   7.910   1.241  12.246 -0.5038 -0.2275  0.8470
19748SOL     OW60684   7.920   0.080  10.695  1.4292  0.8060 -0.2699
19748SOL    HW160685   7.982   0.023  10.741  0.1015  0.1434  0.7426
19748SOL    HW260686   7.865   0.117  10.764  1.2239  2.0648 -1.0696
19749SOL     OW60687   1.720   0.332   0.350  0.1890  0.5024  0.0499
19749SOL    HW160688   1.741   0.318   0.258  0.3818  0.2393  0.1316
19749SOL    HW260689   1.644   0.391   0.350  0.3833  0.7502 -0.2689
19750SOL     OW60690   4.366   2.802   8.972  0.2288 -0.1195  0.0635
19750SOL    HW160691   4.284   2.827   8.930  0.4148 -0.7295 -0.6842
19750SOL    HW260692   4.342   2.732   9.032  0.2474 -0.5194 -0.3910
19751SOL     OW60693   7.370   3.787  10.589 -0.3250 -0.0228  0.2020
19751SOL    HW160694   7.406   3.714  10.640  0.9390  0.5072  0.1133
19751SOL    HW260695   7.285   3.755  10.559 -1.1568 -0.3295  2.6608
19752SOL     OW60696   4.264   5.752   8.530  0.0273 -0.1508  1.0462
19752SOL    HW160697   4.267   5.726   8.438 -0.8217  1.7992  0.4013
19752SOL    HW260698   4.205   5.828   8.531  0.0423 -0.1077  3.2036
19753SOL     OW60699   2.729   4.740   5.583  0.2043  0.4529  0.6822
19753SOL    HW160700   2.768   4.758   5.498  1.6643  0.0588  1.2401
19753SOL    HW260701   2.801   4.751   5.646 -0.7371  0.3434  1.8307
19754SOL     OW60702   3.051   5.783   3.430 -0.1396 -0.2365  0.3575
19754SOL    HW160703   2.981   5.839   3.399 -0.9257 -0.9461  0.8129
19754SOL    HW260704   3.062   5.807   3.522  1.0817  0.7352 -0.0112
19755SOL     OW60705   6.862   5.503  10.375 -0.4438  0.2743 -0.3586
19755SOL    HW160706   6.832   5.486  10.286 -1.2570  2.5923 -0.5807
19755SOL    HW260707   6.932   5.567  10.365  0.0810 -0.1087  0.6435
19756SOL     OW60708   6.718   2.753  11.778  0.2612  0.4573  0.0366
19756SOL    HW160709   6.742   2.782  11.866  1.4552 -0.1889 -0.0662
19756SOL    HW260710   6.693   2.661  11.789  1.2544  0.1273 -0.4351
19757SOL     OW60711   0.620   4.041   6.781  0.3341  0.2228  0.3829
19757SOL    HW160712   0.651   3.951   6.794  1.1762  0.4064 -0.2360
19757SOL    HW260713   0.699   4.095   6.791 -0.4615  1.0902  2.6228
19758SOL     OW60714   7.684   0.757   8.056 -0.0080 -0.2311 -0.0146
19758SOL    HW160715   7.684   0.819   7.983 -0.4867 -0.0991  0.0927
19758SOL    HW260716   7.630   0.684   8.026  2.1125 -1.5281 -0.8920
19759SOL     OW60717   1.724   4.581   8.755 -0.1123  0.3649  0.2785
19759SOL    HW160718   1.790   4.612   8.816  0.1477  1.1063 -0.3648
19759SOL    HW260719   1.650   4.555   8.811  0.5429 -0.0466  0.9696
19760SOL     OW60720   4.842   1.502   0.260  0.5833  0.0513  0.0154
19760SOL    HW160721   4.863   1.425   0.313  0.2913  0.5857  0.9354
19760SOL    HW260722   4.886   1.487   0.176  1.2207 -0.7181  0.4805
19761SOL     OW60723   0.076   1.780  11.422  0.2356 -0.3850  0.3525
19761SOL    HW160724   0.111   1.727  11.350  0.1371  0.9798 -0.7378
19761SOL    HW260725   0.148   1.838  11.446  0.0410 -0.3636  0.8836
19762SOL     OW60726   6.116   7.329   5.147 -0.0494  0.5807  0.2659
19762SOL    HW160727   6.030   7.315   5.108  0.1837 -2.1551  0.5389
19762SOL    HW260728   6.178   7.286   5.087  0.7461 -0.1890  1.5758
19763SOL     OW60729   3.937   6.010   8.204 -0.1473 -0.1484 -0.0638
19763SOL    HW160730   3.989   5.930   8.212  0.9173  0.6499  2.1003
19763SOL    HW260731   3.847   5.980   8.191  0.4634 -1.6287 -1.0974
19764SOL     OW60732   6.213   4.183   1.787  0.3546 -0.1732 -0.0863
19764SOL    HW160733   6.259   4.116   1.737  0.3786  0.0057 -0.3032
19764SOL    HW260734   6.250   4.266   1.757  1.2381 -0.1138  1.1040
19765SOL     OW60735   5.511   7.185   9.815  0.2375 -0.0347  0.1205
19765SOL    HW160736   5.497   7.269   9.772  2.1340 -0.1192 -0.7514
19765SOL    HW260737   5.606   7.174   9.817  0.1723 -0.8704  2.7681
19766SOL     OW60738   4.548   1.946   2.109 -0.6796 -0.0613  0.0704
19766SOL    HW160739   4.484   2.008   2.074  1.1529  0.2839 -3.0295
19766SOL    HW260740   4.615   2.000   2.151 -0.2131 -0.0863 -0.6324
19767SOL     OW60741   4.457   1.248   0.252  0.3447  0.1487  0.7314
19767SOL    HW160742   4.518   1.252   0.325  0.7044 -0.6289  0.4857
19767SOL    HW260743   4.512   1.258   0.174  0.3310 -1.5452  0.4566
19768SOL     OW60744   7.439   5.568   4.390  0.1270  0.6982  0.3337
19768SOL    HW160745   7.491   5.628   4.337 -0.6635  0.9867 -0.1490
19768SOL    HW260746   7.414   5.498   4.329 -1.5135  1.4730  0.0420
19769SOL     OW60747   7.751   6.918   8.066 -0.0362 -0.1532 -0.6913
19769SOL    HW160748   7.754   6.859   8.141  1.2774 -1.4782 -1.7342
19769SOL    HW260749   7.838   6.957   8.063 -0.4548  0.8017 -0.8478
19770SOL     OW60750   2.096   5.554   4.154 -0.2555  0.4495 -0.3571
19770SOL    HW160751   2.134   5.545   4.242  1.1347 -2.0398 -1.1169
19770SOL    HW260752   2.011   5.510   4.161  0.6948 -1.5556 -0.6661
19771SOL     OW60753   5.993   2.689   6.137 -0.1358 -0.5205 -0.0243
19771SOL    HW160754   6.077   2.708   6.179 -0.7630 -0.3201  1.1710
19771SOL    HW260755   5.932   2.753   6.173 -0.4674  0.4500 -2.1636
19772SOL     OW60756   4.968   5.647   3.889  0.0855  0.0640 -0.1492
19772SOL    HW160757   4.988   5.608   3.974 -1.7278 -0.4490  0.0760
19772SOL    HW260758   4.978   5.741   3.903  0.5280 -0.0652  0.4273
19773SOL     OW60759   4.334   7.363   8.538 -0.0814  0.5135 -0.4843
19773SOL    HW160760   4.296   7.276   8.551 -0.6868  1.1409  2.8259
19773SOL    HW260761   4.408   7.348   8.480 -0.0106 -2.2890  0.1924
19774SOL     OW60762   0.084   6.184   7.549  0.0057  0.2971 -0.0735
19774SOL    HW160763   0.082   6.116   7.482  2.6771  0.6918 -0.6678
19774SOL    HW260764   0.161   6.236   7.528 -0.1675  1.6066  2.2153
19775SOL     OW60765   4.991   1.998   8.149 -0.3681  0.5543 -0.1740
19775SOL    HW160766   5.016   1.910   8.124  0.6657  0.5469  0.8274
19775SOL    HW260767   4.929   1.986   8.222  0.0900  0.6579  0.2360
19776SOL     OW60768   5.863   2.243   4.281 -0.0151 -0.4318 -0.4691
19776SOL    HW160769   5.876   2.195   4.363  1.9187 -0.6601 -0.8563
19776SOL    HW260770   5.836   2.176   4.218  4.6583 -1.6826 -1.5349
19777SOL     OW60771   7.899   2.308   6.474 -0.0071  0.3908  0.0607
19777SOL    HW160772   7.834   2.238   6.476  0.1906  0.1477 -1.3362
19777SOL    HW260773   7.975   2.271   6.520 -0.1177 -0.0851 -0.1321
19778SOL     OW60774   7.567   4.242   1.859  0.0930 -0.0331 -0.2380
19778SOL    HW160775   7.610   4.262   1.776  1.8067 -1.9977  0.0669
19778SOL    HW260776   7.518   4.161   1.842  0.0026 -0.1446  0.5066
19779SOL     OW60777   2.119   0.531   4.257 -0.6556 -0.0057  0.1964
19779SOL    HW160778   2.176   0.523   4.333 -0.4126 -1.4670 -0.0926
19779SOL    HW260779   2.038   0.568   4.291 -0.7243 -1.0827  1.2822
19780SOL     OW60780   0.661   1.028   8.934 -0.0913  0.3315  0.4389
19780SOL    HW160781   0.633   0.978   9.011 -1.3867  0.9652  0.4033
19780SOL    HW260782   0.670   1.118   8.966  0.8454  0.3418  0.1774
19781SOL     OW60783   2.045   1.070  11.447  0.3439  0.0831  0.3322
19781SOL    HW160784   1.976   1.016  11.486 -0.3370  0.2949 -0.5525
19781SOL    HW260785   2.031   1.062  11.353  0.9122  0.9352  0.1699
19782SOL     OW60786   7.658   5.466   5.375 -0.3842 -0.4913  0.3862
19782SOL    HW160787   7.710   5.482   5.297 -0.6497  0.1743  0.3401
19782SOL    HW260788   7.685   5.378   5.404  0.6484 -0.2234  0.2802
19783SOL     OW60789   0.758   1.805   7.606 -0.2670 -0.1792 -0.4019
19783SOL    HW160790   0.792   1.781   7.520  0.2368  1.2879 -0.6380
19783SOL    HW260791   0.815   1.759   7.668  1.0270  0.7719 -0.8301
19784SOL     OW60792   4.554   0.458   0.612 -0.3830  0.1962 -0.1588
19784SOL    HW160793   4.528   0.395   0.679  0.2181 -0.4370 -0.5061
19784SOL    HW260794   4.472   0.501   0.587 -0.3855  1.8237  2.3072
19785SOL     OW60795   1.396   7.052  11.543 -0.2255 -0.0655  0.0714
19785SOL    HW160796   1.358   7.052  11.456 -1.2441  0.8948  0.4938
19785SOL    HW260797   1.380   7.141  11.577  1.1991 -0.0370  0.7879
19786SOL     OW60798   6.533   1.368   5.748  0.6110  0.9098 -0.5259
19786SOL    HW160799   6.469   1.406   5.688 -2.0641  2.2336  2.8091
19786SOL    HW260800   6.514   1.275   5.748 -0.7686  1.1747 -0.2535
19787SOL     OW60801   7.556   5.536   1.763  0.4654 -0.0467  0.3773
19787SOL    HW160802   7.475   5.531   1.712  0.5023  0.1467  0.2994
19787SOL    HW260803   7.581   5.444   1.776 -0.6373 -0.1865  1.8041
19788SOL     OW60804   1.354   2.647   2.601 -0.1140  0.0278  0.0067
19788SOL    HW160805   1.422   2.655   2.668  0.0201  1.2053 -0.2492
19788SOL    HW260806   1.299   2.724   2.614 -0.8306 -0.3953 -0.4301
19789SOL     OW60807   2.727   5.130   0.763 -0.2096 -0.0906  0.6869
19789SOL    HW160808   2.714   5.075   0.685  1.0724 -0.0902  0.4518
19789SOL    HW260809   2.654   5.192   0.760 -0.1580 -0.0500 -0.5576
19790SOL     OW60810   4.111   5.697   8.886 -0.2406 -0.1714 -0.2634
19790SOL    HW160811   4.146   5.754   8.955 -0.6776  0.4479 -0.5415
19790SOL    HW260812   4.111   5.609   8.925 -0.7953  0.2190  0.6557
19791SOL     OW60813   4.677   7.331   2.351 -0.0596 -0.3160 -0.3539
19791SOL    HW160814   4.711   7.321   2.440 -0.5368  0.9379 -0.0026
19791SOL    HW260815   4.750   7.370   2.301  0.2756 -1.2099 -0.5705
19792SOL     OW60816   2.592   1.324   3.304  0.7057 -0.3550  0.1266
19792SOL    HW160817   2.663   1.285   3.252  0.7789 -0.0423 -0.0148
19792SOL    HW260818   2.625   1.325   3.394  1.5385  1.2281 -0.1585
19793SOL     OW60819   3.363   6.156  10.330  0.0272  0.1251 -0.0104
19793SOL    HW160820   3.275   6.166  10.367  0.9207  1.4443  1.9190
19793SOL    HW260821   3.408   6.098  10.391  0.6845 -0.0627 -0.6570
19794SOL     OW60822   2.675   6.600   3.717 -0.0294  0.0815 -0.2865
19794SOL    HW160823   2.638   6.525   3.763 -1.0105  0.4783 -0.4190
19794SOL    HW260824   2.706   6.564   3.634 -0.4918 -0.1768 -0.3487
19795SOL     OW60825   6.581   7.023   7.793 -0.0255 -0.4928 -0.3654
19795SOL    HW160826   6.533   6.973   7.859 -0.8286 -0.5554 -0.9828
19795SOL    HW260827   6.612   6.958   7.730  1.4273 -0.5260  0.3499
19796SOL     OW60828   3.927   1.869   6.564  0.6590  0.1326  0.0892
19796SOL    HW160829   3.964   1.793   6.610 -0.6151 -0.1389  0.7207
19796SOL    HW260830   3.964   1.945   6.609  0.7707 -0.1308  0.4467
19797SOL     OW60831   4.464   5.898   1.818 -0.2282  0.6342 -0.1904
19797SOL    HW160832   4.384   5.863   1.859  0.0238 -0.5830 -0.6761
19797SOL    HW260833   4.534   5.876   1.879  0.2302 -1.6887 -1.4094
19798SOL     OW60834   1.992   3.715   9.279 -0.1331  0.3727  0.3163
19798SOL    HW160835   2.013   3.647   9.216  1.2905  1.1134 -0.0535
19798SOL    HW260836   1.896   3.720   9.278 -0.2464 -1.3497  0.1033
19799SOL     OW60837   3.467   0.757  12.428 -0.0977 -0.4229 -0.7263
19799SOL    HW160838   3.536   0.691  12.434  0.6486  0.4627  1.4490
19799SOL    HW260839   3.513   0.837  12.402 -0.5085 -0.1193 -0.5265
19800SOL     OW60840   2.223   0.675   7.968  1.1141  0.4523 -0.3951
19800SOL    HW160841   2.271   0.678   8.051 -0.0591 -1.6036  0.4246
19800SOL    HW260842   2.231   0.764   7.933  1.4177  1.4641  2.0418
19801SOL     OW60843   7.635   1.226   7.998 -0.0225 -0.6402 -0.8236
19801SOL    HW160844   7.561   1.258   8.049  0.7818 -0.6690  0.3871
19801SOL    HW260845   7.624   1.267   7.912 -1.1304 -0.2012 -0.4863
19802SOL     OW60846   0.593   7.787   6.625 -0.1075 -0.4674  0.0347
19802SOL    HW160847   0.657   7.839   6.577 -0.5735 -0.2794 -0.3928
19802SOL    HW260848   0.538   7.748   6.558 -0.9742  0.0693  0.4179
19803SOL     OW60849   4.763   5.201   7.156 -0.1903  0.0345 -0.1595
19803SOL    HW160850   4.793   5.265   7.221 -0.5480  1.6808 -1.5722
19803SOL    HW260851   4.841   5.184   7.102 -0.3303 -0.0618 -0.3307
19804SOL     OW60852   2.506   6.431   8.383  0.5722 -0.3202  0.5055
19804SOL    HW160853   2.462   6.507   8.422  0.3448 -0.6802  0.9737
19804SOL    HW260854   2.474   6.429   8.293 -0.1099 -0.3595  0.7347
19805SOL     OW60855   1.605   2.568   2.419 -0.2143  0.1013 -0.8012
19805SOL    HW160856   1.639   2.653   2.391 -1.6792  0.2344 -2.4463
19805SOL    HW260857   1.664   2.539   2.488  1.4576  1.5612 -1.5410
19806SOL     OW60858   2.674   4.547   3.014 -0.3259 -1.0062  0.0047
19806SOL    HW160859   2.670   4.529   3.108  1.9445  0.4664  0.4720
19806SOL    HW260860   2.760   4.514   2.987 -0.5360 -0.5375 -1.3361
19807SOL     OW60861   4.516   7.934   6.584 -0.2530  0.8954  0.0066
19807SOL    HW160862   4.471   7.942   6.500 -0.6046  1.4437  0.2406
19807SOL    HW260863   4.565   7.852   6.577  0.0843  1.1526 -0.9009
19808SOL     OW60864   7.920   4.112  10.036 -0.2512  0.0082  0.1155
19808SOL    HW160865   8.008   4.150  10.028 -0.3540  0.7525  1.9916
19808SOL    HW260866   7.913   4.087  10.128 -2.6450  1.6541  0.4687
19809SOL     OW60867   7.021   7.678   1.186 -0.1817 -0.6501 -0.1484
19809SOL    HW160868   6.963   7.603   1.170  0.1940 -0.6930 -1.4782
19809SOL    HW260869   7.063   7.693   1.101  2.0296 -0.8462  0.8699
19810SOL     OW60870   7.070   3.431   3.269  0.1997  0.4674 -0.2341
19810SOL    HW160871   7.044   3.357   3.215  0.0568 -0.0699  0.5620
19810SOL    HW260872   7.019   3.505   3.234 -0.1163  0.0653 -0.6321
19811SOL     OW60873   1.553   3.605   0.127  0.3133 -0.2808  0.1212
19811SOL    HW160874   1.522   3.629   0.214 -0.0197 -1.3010  0.2901
19811SOL    HW260875   1.532   3.513   0.118 -1.6679  0.2835 -1.8858
19812SOL     OW60876   6.599   5.206   0.731  0.1076  0.2471  0.1223
19812SOL    HW160877   6.670   5.250   0.778 -0.3084 -1.2859  2.3202
19812SOL    HW260878   6.567   5.273   0.670  2.4023  1.4701  0.1403
19813SOL     OW60879   0.357   0.799   2.346  0.4419  0.4605 -0.2696
19813SOL    HW160880   0.390   0.819   2.434  0.1075 -0.0388 -0.0281
19813SOL    HW260881   0.309   0.878   2.321 -3.8350 -1.0477  2.0830
19814SOL     OW60882   5.131   6.704   0.485  0.0172 -0.0474  0.5778
19814SOL    HW160883   5.203   6.656   0.445  0.9679  1.3247  0.5928
19814SOL    HW260884   5.172   6.779   0.526 -1.4070  0.6723  0.7305
19815SOL     OW60885   6.674   0.411   4.002  0.8375 -0.1528 -0.4446
19815SOL    HW160886   6.747   0.420   4.064  0.8690 -0.2413 -0.4682
19815SOL    HW260887   6.605   0.466   4.038  0.1456 -1.7331  0.7390
19816SOL     OW60888   4.205   4.343   8.752  0.0044 -0.1166  0.4812
19816SOL    HW160889   4.201   4.260   8.800  0.2662 -0.8539 -0.7150
19816SOL    HW260890   4.296   4.369   8.757  0.0649 -0.2808  0.2500
19817SOL     OW60891   6.020   6.114   1.651 -0.2146  0.3944 -0.1276
19817SOL    HW160892   6.019   6.209   1.652 -0.8035  0.5019 -2.8544
19817SOL    HW260893   6.075   6.091   1.576  2.0923 -1.5375  1.9448
19818SOL     OW60894   7.959   3.181  11.711  0.0655  0.0094 -0.3021
19818SOL    HW160895   7.959   3.129  11.630 -1.4072  0.5100 -0.6618
19818SOL    HW260896   7.867   3.190  11.733  0.3275  1.6626  0.2653
19819SOL     OW60897   5.633   3.072  12.018  0.3196  0.3422  0.3843
19819SOL    HW160898   5.589   3.068  12.104 -0.3228  0.8159  0.0913
19819SOL    HW260899   5.633   3.165  11.997  2.6834  0.5214  0.9682
19820SOL     OW60900   7.588   7.073   4.264  0.1736  0.6152  0.0355
19820SOL    HW160901   7.512   7.107   4.217  1.0406 -0.3983 -2.2680
19820SOL    HW260902   7.658   7.135   4.245  0.6407 -0.0371 -0.4525
19821SOL     OW60903   1.955   4.543   1.316 -0.4775 -0.7967  0.1410
19821SOL    HW160904   1.907   4.509   1.240 -0.8587  0.2140 -0.0770
19821SOL    HW260905   2.030   4.483   1.324 -0.1429 -0.6292 -1.3576
19822SOL     OW60906   2.968   2.772  10.661 -0.0776 -0.1782  0.0264
19822SOL    HW160907   3.034   2.712  10.627 -1.2954 -1.7370  0.2762
19822SOL    HW260908   2.884   2.730  10.639 -0.9554  0.9235  1.1338
19823SOL     OW60909   0.995   7.476   8.828  0.3506  0.2380  0.3057
19823SOL    HW160910   1.061   7.407   8.836 -0.5216 -0.5162  1.4461
19823SOL    HW260911   0.930   7.440   8.767  1.4442  1.3892 -1.6092
19824SOL     OW60912   5.219   7.575  10.753  0.1519  0.2802  0.3124
19824SOL    HW160913   5.151   7.642  10.759 -0.0190  0.0595  1.0174
19824SOL    HW260914   5.272   7.601  10.678 -0.6760  0.4895 -0.2225
19825SOL     OW60915   7.948   5.736   4.330  0.1913  0.3004 -0.5158
19825SOL    HW160916   8.005   5.751   4.406 -0.3126 -1.3821  0.2377
19825SOL    HW260917   7.921   5.824   4.303  1.7596  1.0400  0.1720
19826SOL     OW60918   5.047   6.193   9.604 -0.5985  0.3383  0.1649
19826SOL    HW160919   5.064   6.199   9.698 -0.9414 -0.5520  0.2907
19826SOL    HW260920   5.132   6.208   9.563 -0.1213 -0.8569  0.6817
19827SOL     OW60921   3.888   7.064   5.719 -0.3538  0.6589 -0.2373
19827SOL    HW160922   3.925   7.007   5.786  0.2569  0.8917 -0.3673
19827SOL    HW260923   3.805   7.023   5.695 -0.3781  0.3483  0.3536
19828SOL     OW60924   0.047   5.955  10.172  0.7388  0.2255 -0.5550
19828SOL    HW160925   0.047   6.032  10.229  0.9848 -0.0970 -0.1163
19828SOL    HW260926  -0.041   5.920  10.178  0.8771 -0.0386 -0.0601
19829SOL     OW60927   7.101   4.669   3.881 -0.3464 -0.2985 -0.4153
19829SOL    HW160928   7.020   4.705   3.918 -0.6907 -0.7628 -0.7082
19829SOL    HW260929   7.165   4.676   3.951 -0.3792  0.9537 -0.4730
19830SOL     OW60930   2.370   1.113  11.158 -0.0360  0.6632  0.6446
19830SOL    HW160931   2.320   1.143  11.234 -0.1451  0.5545  0.6172
19830SOL    HW260932   2.409   1.192  11.121  0.8256  0.6012  1.3920
19831SOL     OW60933   3.913   7.763   7.464  0.2629 -0.3611  0.6362
19831SOL    HW160934   3.876   7.676   7.446 -0.5998 -0.3888  2.3540
19831SOL    HW260935   3.842   7.810   7.509  0.6908  1.2787 -0.3236
19832SOL     OW60936   5.216   2.894   1.720  1.1562  0.6790 -0.6269
19832SOL    HW160937   5.248   2.940   1.798  0.8470  0.5264 -0.4024
19832SOL    HW260938   5.132   2.857   1.748  0.0140  2.3649 -1.6438
19833SOL     OW60939   4.208   4.225   6.933  0.2936  0.4083  0.2928
19833SOL    HW160940   4.273   4.290   6.957  1.9764 -0.2140 -2.2346
19833SOL    HW260941   4.257   4.144   6.923 -0.9829 -0.2652 -0.8851
19834SOL     OW60942   7.391   3.933   8.339 -0.3150  0.7294 -0.0440
19834SOL    HW160943   7.456   3.865   8.320 -0.1156  0.7840  0.4327
19834SOL    HW260944   7.313   3.906   8.291 -0.6448 -0.5055  1.1080
19835SOL     OW60945   3.448   1.856  10.398 -0.1348  0.1590  0.0382
19835SOL    HW160946   3.517   1.802  10.359 -0.7990 -0.6616 -0.0427
19835SOL    HW260947   3.445   1.828  10.490 -1.3855 -0.9523 -0.3033
19836SOL     OW60948   6.020   1.774   8.496  0.0223 -0.2459  0.5732
19836SOL    HW160949   6.066   1.754   8.578 -3.0346 -2.0210  2.0475
19836SOL    HW260950   5.994   1.866   8.505  0.7166 -0.0941  1.0654
19837SOL     OW60951   0.945   5.989   6.203 -0.3299 -0.0010 -0.0890
19837SOL    HW160952   0.894   5.908   6.204  1.3990 -1.1444  1.6258
19837SOL    HW260953   0.937   6.024   6.291  0.2746  0.8254 -0.3530
19838SOL     OW60954   2.827   3.774   9.134 -0.6599 -0.4015  0.2410
19838SOL    HW160955   2.828   3.834   9.208  0.1808 -1.2519  0.9492
19838SOL    HW260956   2.745   3.794   9.088  0.2426  2.2267 -0.3804
19839SOL     OW60957   1.409   2.207   6.439 -0.1678  0.2055 -0.0549
19839SOL    HW160958   1.368   2.139   6.386  0.9899 -0.9687  0.5081
19839SOL    HW260959   1.494   2.170   6.465  0.8828  2.2150 -0.4660
19840SOL     OW60960   5.375   2.503  10.370 -0.0152  0.4054  0.0067
19840SOL    HW160961   5.409   2.443  10.437 -1.0320  0.6721  0.7857
19840SOL    HW260962   5.449   2.516  10.311  0.1529 -1.8788 -0.3857
19841SOL     OW60963   1.775   7.022   7.243  0.2234  0.2932 -0.1860
19841SOL    HW160964   1.721   6.964   7.189 -0.4941  0.1205  0.6777
19841SOL    HW260965   1.798   6.969   7.319  0.0135  0.9536  0.3571
19842SOL     OW60966   6.224   2.720   6.297  0.3015 -0.4289  0.6824
19842SOL    HW160967   6.311   2.686   6.318 -0.0818 -0.7197  1.8987
19842SOL    HW260968   6.237   2.814   6.288  0.5860 -0.3200  1.9394
19843SOL     OW60969   2.002   0.139   3.130  0.1702 -0.4448  0.5477
19843SOL    HW160970   2.020   0.227   3.098  0.0015 -0.2797  0.9139
19843SOL    HW260971   1.912   0.121   3.102 -0.6139  0.3641  2.4019
19844SOL     OW60972   1.351   7.233   0.102  0.7073  0.2440 -0.0278
19844SOL    HW160973   1.307   7.195   0.025 -0.8738  0.1013  0.9039
19844SOL    HW260974   1.408   7.163   0.133  0.9981  0.1350 -0.7759
19845SOL     OW60975   3.090   1.742  11.212 -0.4830 -0.5440  0.1880
19845SOL    HW160976   3.171   1.774  11.253 -0.0656 -0.7840 -0.4179
19845SOL    HW260977   3.020   1.785  11.260  0.0629  1.9731 -1.0865
19846SOL     OW60978   1.834   2.770   7.774 -0.1573  0.4658 -1.1408
19846SOL    HW160979   1.869   2.748   7.688  1.6659  1.0771 -0.5833
19846SOL    HW260980   1.845   2.865   7.781 -2.1300  0.7267 -0.9938
19847SOL     OW60981   7.917   6.978   0.290  0.1589  0.3722 -0.0887
19847SOL    HW160982   7.930   6.883   0.289 -0.1696  0.3302 -0.5812
19847SOL    HW260983   7.831   6.992   0.252 -0.0494  0.8379  0.5295
19848SOL     OW60984   5.094   3.756  11.723 -0.2435 -0.5734  0.4350
19848SOL    HW160985   5.134   3.842  11.712 -0.2491  0.0497  4.0509
19848SOL    HW260986   5.162   3.694  11.697  1.1736  0.5193  1.4007
19849SOL     OW60987   5.699   2.252   6.156  0.3607  0.2794 -0.2020
19849SOL    HW160988   5.624   2.192   6.150 -0.1182  0.7691  0.7102
19849SOL    HW260989   5.767   2.200   6.198 -0.0121  0.3237  0.4707
19850SOL     OW60990   7.270   3.520   5.156  0.2326 -0.1802  0.1934
19850SOL    HW160991   7.210   3.574   5.208  0.6400  0.0743  0.4041
19850SOL    HW260992   7.220   3.441   5.136  0.1114 -0.3382  1.0898
19851SOL     OW60993   4.281   2.706   3.547  0.2161  0.0375 -0.3462
19851SOL    HW160994   4.335   2.650   3.492  0.6031  0.3442 -0.2819
19851SOL    HW260995   4.341   2.742   3.612  0.0275  0.7169 -0.5334
19852SOL     OW60996   0.491   5.369   6.929  0.4833  0.4939 -0.2009
19852SOL    HW160997   0.475   5.297   6.991 -3.4832  0.9287 -0.4742
19852SOL    HW260998   0.508   5.325   6.846  0.0999 -0.1347  0.0410
19853SOL     OW60999   1.496   6.058   6.621 -0.2296 -0.4450  0.0831
19853SOL    HW161000   1.446   6.064   6.540  1.9750  1.1583 -1.2655
19853SOL    HW261001   1.493   6.146   6.658 -0.7296 -1.0185  1.5122
19854SOL     OW61002   6.427   2.750   9.839  0.3248 -0.3886 -0.4526
19854SOL    HW161003   6.514   2.768   9.875 -0.0156 -0.1341  0.2667
19854SOL    HW261004   6.431   2.659   9.811  0.7172 -0.4790 -0.1183
19855SOL     OW61005   2.019   5.116   2.462 -0.3622 -0.0147 -0.2764
19855SOL    HW161006   2.067   5.047   2.416 -1.2241 -1.0753  0.3374
19855SOL    HW261007   2.061   5.122   2.548 -0.1508  0.3730 -0.4092
19856SOL     OW61008   0.027   3.251   4.242  0.0338 -0.4162  0.1256
19856SOL    HW161009   0.114   3.243   4.202  0.1449  1.2929 -0.0474
19856SOL    HW261010   0.008   3.163   4.274  3.1630 -0.2911  2.9366
19857SOL     OW61011   3.549   5.076   0.448  0.2990  0.4854 -0.0114
19857SOL    HW161012   3.622   5.087   0.508  0.8673 -0.3087 -0.5425
19857SOL    HW261013   3.573   5.001   0.394 -0.3091  1.0231 -1.0628
19858SOL     OW61014   4.801   7.562   3.614  0.1466 -0.0356  0.4336
19858SOL    HW161015   4.781   7.491   3.674 -0.6790  1.0848  1.5439
19858SOL    HW261016   4.896   7.574   3.620  0.1965 -0.5823  0.7494
19859SOL     OW61017   4.215   2.881   5.615 -0.4487 -0.5464  0.1033
19859SOL    HW161018   4.223   2.958   5.559  0.2302 -0.9807 -0.4192
19859SOL    HW261019   4.127   2.848   5.599 -0.4756 -0.3136 -0.2410
19860SOL     OW61020   4.095   2.774   8.444  0.6370  0.7401  0.1925
19860SOL    HW161021   4.128   2.712   8.378 -1.4016  0.0431 -0.2444
19860SOL    HW261022   4.054   2.844   8.393 -0.3337  0.5525  0.6892
19861SOL     OW61023   6.028   4.666   2.241 -0.7386  0.2880 -0.2555
19861SOL    HW161024   5.991   4.669   2.329  0.5813  1.3412  0.2901
19861SOL    HW261025   6.001   4.749   2.201  0.5908  0.8548 -0.0117
19862SOL     OW61026   3.875   2.937   7.899 -0.2807 -0.2997 -0.6038
19862SOL    HW161027   3.964   2.904   7.909  0.7299  2.5489  0.9001
19862SOL    HW261028   3.820   2.859   7.899  2.1637 -2.1373 -1.4398
19863SOL     OW61029   2.861   0.765   2.594 -0.3255 -0.4954 -0.2442
19863SOL    HW161030   2.780   0.806   2.563 -0.5118 -0.7650 -0.1115
19863SOL    HW261031   2.837   0.720   2.674 -0.2596 -1.3912 -0.7212
19864SOL     OW61032   0.755   6.123   5.293  0.0887  0.3354  0.2433
19864SOL    HW161033   0.748   6.043   5.344  1.9583  0.2410  0.4071
19864SOL    HW261034   0.848   6.130   5.271 -0.0466  2.3812  0.1007
19865SOL     OW61035   3.751   6.408  11.695 -0.3148 -0.0387 -0.5935
19865SOL    HW161036   3.846   6.420  11.692 -0.6138  3.8048  0.6284
19865SOL    HW261037   3.724   6.412  11.603  0.6353 -0.9014 -0.9349
19866SOL     OW61038   7.070   0.815  11.224 -0.1197 -0.3735  0.4633
19866SOL    HW161039   7.105   0.822  11.135  0.5658  0.0926  0.7625
19866SOL    HW261040   7.103   0.892  11.270 -2.7811  0.9291  0.3788
19867SOL     OW61041   4.270   3.868  10.634 -0.6004 -0.3733 -0.1115
19867SOL    HW161042   4.314   3.946  10.599  0.4381 -1.0233 -0.2847
19867SOL    HW261043   4.238   3.896  10.720  0.1259  0.1349  0.0046
19868SOL     OW61044   5.641   4.764   6.337 -0.7601  0.0371  0.4101
19868SOL    HW161045   5.650   4.751   6.243  0.3135 -2.0937  0.7493
19868SOL    HW261046   5.565   4.821   6.346  0.5052  2.2492 -1.8107
19869SOL     OW61047   6.460   3.014  11.983  0.2090  0.1746  0.2118
19869SOL    HW161048   6.530   2.977  12.038  1.3306  1.4519 -0.2914
19869SOL    HW261049   6.379   2.984  12.024  1.0297 -1.1609  0.9625
19870SOL     OW61050   1.968   0.391   0.106  0.2339 -0.3822 -0.1392
19870SOL    HW161051   1.878   0.365   0.087 -0.0762  0.0353  0.7208
19870SOL    HW261052   1.979   0.475   0.061  0.7163 -1.1662 -1.5568
19871SOL     OW61053   5.687   2.459   1.975  0.0007  0.5345 -0.1352
19871SOL    HW161054   5.644   2.374   1.990 -0.3153  0.8302  0.6850
19871SOL    HW261055   5.775   2.436   1.944  0.2971 -0.1284  1.1156
19872SOL     OW61056   6.008   7.506   1.604 -0.6036  0.5116 -0.3622
19872SOL    HW161057   6.078   7.545   1.550  0.9133 -1.1866  0.3041
19872SOL    HW261058   5.969   7.440   1.547 -1.1185  0.8699 -0.4322
19873SOL     OW61059   4.522   4.176  12.388  0.1752  0.2274 -0.3872
19873SOL    HW161060   4.609   4.173  12.349  0.1144  0.0760 -0.5103
19873SOL    HW261061   4.490   4.264  12.369  0.5889  0.5358  0.2822
19874SOL     OW61062   2.417   6.332   2.697  0.2878  0.0338  0.3250
19874SOL    HW161063   2.432   6.257   2.640  0.7003 -0.2811  0.8399
19874SOL    HW261064   2.328   6.360   2.676 -0.0339 -0.8654  0.4235
19875SOL     OW61065   4.407   7.083   2.344 -0.7921 -0.2556  0.2114
19875SOL    HW161066   4.502   7.076   2.354 -0.1859  1.5897 -2.7565
19875SOL    HW261067   4.393   7.174   2.320 -3.0737 -0.9291 -1.2852
19876SOL     OW61068   5.202   6.247   1.348  0.4880 -0.1315 -0.6674
19876SOL    HW161069   5.123   6.278   1.394  1.1994 -2.6904  2.6984
19876SOL    HW261070   5.239   6.326   1.310 -2.5968  1.4956 -0.6586
19877SOL     OW61071   3.117   7.681  11.467 -0.0647  0.2595  0.0620
19877SOL    HW161072   3.048   7.731  11.512  1.8701  2.1585  1.1247
19877SOL    HW261073   3.077   7.656  11.384 -2.5971 -0.2787  1.3122
19878SOL     OW61074   2.145   3.251   0.171  0.1748  0.3412  0.3683
19878SOL    HW161075   2.190   3.262   0.087  0.6066  0.1994  0.5744
19878SOL    HW261076   2.183   3.319   0.227 -1.1654  1.4127  0.0399
19879SOL     OW61077   6.992   0.746   0.988  0.1024  0.1830 -0.3571
19879SOL    HW161078   6.961   0.836   0.981  0.5470  0.5213  1.4479
19879SOL    HW261079   7.085   0.751   0.967  0.2122  0.2338  0.1173
19880SOL     OW61080   7.006   0.566   3.320 -0.1327 -0.0891 -0.1852
19880SOL    HW161081   6.932   0.514   3.352  0.5210  0.1025  1.8200
19880SOL    HW261082   7.076   0.501   3.307 -1.0265 -0.5211 -3.6874
19881SOL     OW61083   0.427   3.289   3.651 -0.1353  0.4523  0.1745
19881SOL    HW161084   0.359   3.353   3.630 -0.2767  0.7945  1.5289
19881SOL    HW261085   0.426   3.286   3.747  0.5444 -0.8622  0.1486
19882SOL     OW61086   2.914   7.931  11.962  0.5599  0.0249  0.2267
19882SOL    HW161087   2.875   7.892  12.040 -1.0804  0.2850 -0.4263
19882SOL    HW261088   2.974   7.863  11.930 -0.6013 -1.0989  0.3425
19883SOL     OW61089   7.322   0.097   5.776  0.2058  0.1352  0.8759
19883SOL    HW161090   7.382   0.124   5.845 -0.5063  1.1454  1.1287
19883SOL    HW261091   7.290   0.011   5.804  0.8144  0.0058  1.1928
19884SOL     OW61092   7.179   6.268   4.568  0.0078  0.5453  0.4358
19884SOL    HW161093   7.231   6.206   4.517  0.3240  0.7491  0.5058
19884SOL    HW261094   7.114   6.215   4.614 -1.4577  0.4999 -1.5496
19885SOL     OW61095   0.509   1.963   0.539 -0.1611  0.0181 -0.1196
19885SOL    HW161096   0.463   1.917   0.609 -1.2544 -0.6098 -1.2213
19885SOL    HW261097   0.601   1.959   0.565 -0.5826  0.2787  1.5371
19886SOL     OW61098   5.512   4.018  10.455  0.5053  0.4919 -0.4002
19886SOL    HW161099   5.507   4.027  10.550  0.0332 -1.3433 -0.2141
19886SOL    HW261100   5.428   4.050  10.423  0.5975  0.9449 -0.2002
19887SOL     OW61101   3.409   2.343  10.610  0.3887 -0.1275 -0.2891
19887SOL    HW161102   3.429   2.270  10.669 -1.5105  0.7973  1.6023
19887SOL    HW261103   3.439   2.421  10.656 -2.3671  0.7497  0.2055
19888SOL     OW61104   2.907   1.455   7.020  0.0240 -0.1206 -0.1786
19888SOL    HW161105   2.832   1.396   7.023  0.0918 -0.1662  1.1062
19888SOL    HW261106   2.909   1.496   7.107  1.5980 -0.2753 -0.1106
19889SOL     OW61107   1.584   6.009  10.271 -0.5318  0.5168 -0.3553
19889SOL    HW161108   1.563   6.065  10.197 -0.5174 -1.0718 -1.6063
19889SOL    HW261109   1.634   5.936  10.234 -0.7960 -0.4902  1.1540
19890SOL     OW61110   0.827   5.341   5.225 -0.4071  0.2851 -0.4239
19890SOL    HW161111   0.904   5.350   5.281 -1.0889 -0.4597  0.6835
19890SOL    HW261112   0.767   5.408   5.256 -0.1615  0.9612 -1.3840
19891SOL     OW61113   2.717   2.079   8.218  0.4822 -0.0718  0.4125
19891SOL    HW161114   2.701   2.164   8.258  1.6047  0.2380  0.2498
19891SOL    HW261115   2.812   2.076   8.204  0.3589 -0.9720 -0.4251
19892SOL     OW61116   3.360   3.738   9.115 -0.3333 -0.0819  0.1048
19892SOL    HW161117   3.431   3.788   9.074  0.3503 -0.5115  0.7290
19892SOL    HW261118   3.394   3.649   9.119 -0.3492 -0.0430  1.6455
19893SOL     OW61119   2.810   3.130   2.337  0.2527  0.1780 -0.1743
19893SOL    HW161120   2.803   3.087   2.422 -0.5298 -0.3201 -0.4737
19893SOL    HW261121   2.898   3.167   2.335  0.2245  0.3224  0.9090
19894SOL     OW61122   7.176   2.216   1.839  0.6338 -0.0954 -0.3938
19894SOL    HW161123   7.180   2.308   1.862  1.0604  0.4243 -2.3766
19894SOL    HW261124   7.261   2.181   1.866  0.4182  0.0384  0.4901
19895SOL     OW61125   6.829   5.027   1.486  0.3233 -0.4224  0.0418
19895SOL    HW161126   6.917   4.993   1.472  0.5730 -0.7640  2.1478
19895SOL    HW261127   6.774   4.949   1.491  0.4088 -0.4015  1.7652
19896SOL     OW61128   6.612   2.495   2.157  0.4498  0.3141 -0.4206
19896SOL    HW161129   6.681   2.444   2.201 -0.2505 -0.8557 -0.6406
19896SOL    HW261130   6.609   2.578   2.205  1.6347  0.1705 -0.0647
19897SOL     OW61131   1.742   2.871   3.255  0.3367 -0.0229  0.1890
19897SOL    HW161132   1.769   2.951   3.210 -1.4617 -0.1893 -1.3272
19897SOL    HW261133   1.823   2.837   3.293  1.3471  1.8978 -0.0891
19898SOL     OW61134   7.815   4.713   9.261 -0.7834  0.1013  0.0376
19898SOL    HW161135   7.875   4.640   9.273  0.3907  1.1130  0.6011
19898SOL    HW261136   7.758   4.712   9.338 -0.6731 -0.1282  0.1132
19899SOL     OW61137   6.020   1.139   7.662 -0.6383 -0.3479 -0.2004
19899SOL    HW161138   6.116   1.143   7.664 -0.6813  0.9403  0.2031
19899SOL    HW261139   6.000   1.046   7.676  0.5365 -0.5936  0.0101
19900SOL     OW61140   4.578   3.182   3.450 -0.1748 -0.1976  0.2004
19900SOL    HW161141   4.604   3.265   3.409 -0.3918  1.1124  2.5607
19900SOL    HW261142   4.501   3.204   3.502 -0.5763 -2.0348  0.4398
19901SOL     OW61143   7.949   1.780   7.577 -0.3176  0.0187 -0.0523
19901SOL    HW161144   7.948   1.834   7.498 -2.9993 -0.8335 -0.7047
19901SOL    HW261145   8.020   1.717   7.563  0.7232  1.2853 -0.7110
19902SOL     OW61146   0.659   3.792   4.865  0.0572 -0.1369  0.1132
19902SOL    HW161147   0.747   3.787   4.829  0.0393  1.2816 -0.1820
19902SOL    HW261148   0.672   3.824   4.955 -0.2074  1.1933 -0.3039
19903SOL     OW61149   0.674   2.143   1.336  0.0417  0.2273  0.3640
19903SOL    HW161150   0.639   2.099   1.259  1.2713 -0.6617  0.2678
19903SOL    HW261151   0.733   2.078   1.375  1.7296  1.6924  0.3719
19904SOL     OW61152   3.257   2.283   1.542 -0.6272  0.3449 -0.3599
19904SOL    HW161153   3.187   2.219   1.559  0.8117 -0.9297  1.0918
19904SOL    HW261154   3.283   2.266   1.452  0.7032 -2.2323  0.3993
19905SOL     OW61155   1.206   7.080   0.943  0.3065 -0.0464 -0.7054
19905SOL    HW161156   1.237   7.170   0.932 -0.4001  0.1076 -1.5871
19905SOL    HW261157   1.208   7.065   1.037 -0.2478  1.1532 -0.4786
19906SOL     OW61158   3.969   5.659   9.954  0.1554 -0.2047 -0.4717
19906SOL    HW161159   4.005   5.575   9.981  0.5304 -0.2169 -0.9906
19906SOL    HW261160   3.916   5.639   9.877  0.9884  0.1509 -1.1587
19907SOL     OW61161   3.128   5.683   2.992  0.5884  0.4844 -0.6139
19907SOL    HW161162   3.070   5.743   3.040 -2.3729 -1.6764 -1.2199
19907SOL    HW261163   3.114   5.703   2.900 -0.7151 -1.2361 -0.8473
19908SOL     OW61164   2.944   6.193   6.013  0.3617  0.6435  0.7577
19908SOL    HW161165   3.028   6.191   6.059  1.2871  0.2849 -0.8519
19908SOL    HW261166   2.932   6.285   5.989  1.0388  0.4791 -0.2617
19909SOL     OW61167   0.110   5.298  10.007 -0.2044 -1.1495 -0.0091
19909SOL    HW161168   0.156   5.305   9.924 -0.5598 -0.3014 -0.1438
19909SOL    HW261169   0.147   5.220  10.048  2.5233  0.3402  0.6211
19910SOL     OW61170   1.779   3.578   0.782 -0.0963 -0.4967 -0.1465
19910SOL    HW161171   1.775   3.584   0.686  0.6145 -3.2859 -0.4297
19910SOL    HW261172   1.782   3.669   0.811  1.2905  0.4520 -2.8513
19911SOL     OW61173   2.260   7.927   3.937  0.1914  0.8926 -0.3339
19911SOL    HW161174   2.346   7.906   3.974 -0.0699 -0.2782 -0.3594
19911SOL    HW261175   2.243   7.857   3.874 -0.3390  1.6721 -1.0874
19912SOL     OW61176   5.450   0.256   9.754 -0.1999  0.0475  0.2449
19912SOL    HW161177   5.446   0.299   9.669  0.1019 -2.0400 -0.8839
19912SOL    HW261178   5.543   0.248   9.774 -0.2720  1.6160  1.4055
19913SOL     OW61179   5.361   7.910  10.693  0.1189  0.6856 -0.1889
19913SOL    HW161180   5.365   7.976  10.624 -1.5341  0.7965 -0.2369
19913SOL    HW261181   5.443   7.863  10.686  0.7738  1.8891 -1.0208
19914SOL     OW61182   6.741   3.909   2.299 -0.3570  0.1539  0.0821
19914SOL    HW161183   6.658   3.883   2.339  1.3270 -0.6645  3.4464
19914SOL    HW261184   6.778   3.973   2.360  1.5680  0.3090 -1.1660
19915SOL     OW61185   4.050   5.315   5.108 -0.5257 -0.2631  0.2197
19915SOL    HW161186   4.093   5.367   5.176 -0.5591 -1.2997  1.0579
19915SOL    HW261187   3.962   5.351   5.101  0.4188  1.9547 -1.5883
19916SOL     OW61188   6.954   2.961   4.339 -0.1650  0.6639 -0.7964
19916SOL    HW161189   6.935   3.052   4.313 -2.0845  0.0481 -1.7655
19916SOL    HW261190   6.944   2.961   4.434 -1.1667  1.2665 -0.8883
19917SOL     OW61191   7.448   5.598   1.150 -0.1769  0.0740  0.6466
19917SOL    HW161192   7.421   5.613   1.241 -3.1199  1.0305 -0.2871
19917SOL    HW261193   7.502   5.675   1.129 -1.1529  0.8931  1.0147
19918SOL     OW61194   3.594   5.097   1.932 -0.3637  0.1209  0.4519
19918SOL    HW161195   3.525   5.133   1.988 -0.9857  0.2559 -0.3784
19918SOL    HW261196   3.548   5.037   1.872  0.3117 -0.1766  0.2186
19919SOL     OW61197   7.126   6.477   6.464 -0.4317  0.0536  0.1948
19919SOL    HW161198   7.147   6.388   6.436 -0.6839  0.3397 -0.9754
19919SOL    HW261199   7.209   6.513   6.496  0.0306 -0.1024 -0.7784
19920SOL     OW61200   3.516   6.583   5.912  0.2590  0.5111  0.2930
19920SOL    HW161201   3.440   6.587   5.853  1.9669  0.6121 -2.0228
19920SOL    HW261202   3.492   6.640   5.985 -2.3141 -0.3174  0.1939
19921SOL     OW61203   2.059   0.991   8.472 -0.0352  0.0854 -0.4576
19921SOL    HW161204   2.020   0.955   8.392  1.4513 -0.9215 -0.7682
19921SOL    HW261205   1.991   0.980   8.539 -0.8325 -0.2240 -1.3014
19922SOL     OW61206   3.495   0.387   1.464 -0.1681 -0.3697  0.2675
19922SOL    HW161207   3.516   0.394   1.557 -0.3045 -0.3655  0.2986
19922SOL    HW261208   3.579   0.378   1.421 -0.1684 -2.9804  0.6166
19923SOL     OW61209   3.589   2.400  11.681 -0.3975  0.0137 -0.2694
19923SOL    HW161210   3.515   2.455  11.655 -1.3897 -0.8308  0.6446
19923SOL    HW261211   3.576   2.385  11.774  0.9255 -0.1950 -0.0994
19924SOL     OW61212   3.739   4.505   1.610  0.0003 -0.1198 -0.0693
19924SOL    HW161213   3.650   4.507   1.576 -0.7412  0.6257  1.7712
19924SOL    HW261214   3.737   4.439   1.679  1.0525 -0.5371 -0.4139
19925SOL     OW61215   1.106   7.264  10.342  0.1916 -0.2277 -0.7213
19925SOL    HW161216   1.166   7.189  10.337  0.9206  0.3557 -0.8947
19925SOL    HW261217   1.119   7.300  10.429  0.5680  0.2774 -0.9787
19926SOL     OW61218   2.614   6.517  12.151 -0.1811  0.1126  0.3270
19926SOL    HW161219   2.534   6.567  12.136  0.2970  0.1154 -2.9562
19926SOL    HW261220   2.585   6.428  12.168 -0.9259  0.2764 -0.0521
19927SOL     OW61221   3.967   1.679   8.687  0.3176  0.1487 -0.4013
19927SOL    HW161222   3.900   1.741   8.659 -1.3722 -0.8714  1.1607
19927SOL    HW261223   4.036   1.732   8.724 -1.4020  1.1392  1.5587
19928SOL     OW61224   4.224   7.722   8.480  0.5841 -0.0439  0.2625
19928SOL    HW161225   4.262   7.758   8.559  1.1771 -1.9001  0.8845
19928SOL    HW261226   4.172   7.647   8.510 -0.3050  0.0334 -0.9766
19929SOL     OW61227   4.404   0.218   4.909  0.0929  0.0205 -0.0534
19929SOL    HW161228   4.347   0.218   4.831 -1.2194 -0.5978  0.8599
19929SOL    HW261229   4.457   0.139   4.900  1.2600  0.8916 -1.1922
19930SOL     OW61230   2.808   6.891   8.582  0.4927 -0.6147 -0.2444
19930SOL    HW161231   2.799   6.807   8.626 -0.0370  1.0080  3.0418
19930SOL    HW261232   2.868   6.941   8.638  1.4873  0.9632 -2.5473
19931SOL     OW61233   3.401   7.916   3.259  0.0885 -0.7208 -0.5129
19931SOL    HW161234   3.366   7.936   3.172 -0.7731 -0.1378 -0.0449
19931SOL    HW261235   3.384   7.822   3.270  0.0887 -0.7714 -0.9222
19932SOL     OW61236   0.961   6.642   9.785  0.5660  0.2477  0.3485
19932SOL    HW161237   1.046   6.628   9.827  0.5639 -0.8007  0.0261
19932SOL    HW261238   0.950   6.566   9.727  0.9457  1.9965 -2.1801
19933SOL     OW61239   0.155   2.037   3.966 -0.2706  0.0215 -0.1042
19933SOL    HW161240   0.151   2.061   3.874  0.8562  1.2998  0.1534
19933SOL    HW261241   0.161   2.120   4.013 -1.5329 -0.5663  1.1850
19934SOL     OW61242   7.039   2.187   0.774 -0.7287  0.5012  0.0930
19934SOL    HW161243   7.134   2.189   0.776 -0.6805 -0.5218 -0.4678
19934SOL    HW261244   7.016   2.096   0.794 -1.5743  0.6728 -0.0457
19935SOL     OW61245   7.638   6.837   1.026  0.8125 -0.2144  0.1505
19935SOL    HW161246   7.700   6.787   0.972  0.3934 -0.3726 -0.1842
19935SOL    HW261247   7.562   6.780   1.034  0.4164  0.2813 -0.0577
19936SOL     OW61248   3.412   7.021  11.271 -0.5081 -0.0195 -0.0886
19936SOL    HW161249   3.505   7.006  11.251  0.0253  0.6898  1.7176
19936SOL    HW261250   3.387   6.944  11.322 -0.7730  0.0574 -0.1046
19937SOL     OW61251   1.590   2.743   4.111 -0.3918 -0.1777 -0.1656
19937SOL    HW161252   1.561   2.834   4.100  2.9243  1.1046  0.6088
19937SOL    HW261253   1.547   2.715   4.192 -1.6731  0.5884 -0.5506
19938SOL     OW61254   7.323   4.319  12.268 -0.3441  0.6449  0.0310
19938SOL    HW161255   7.399   4.321  12.210  0.6599  2.2683  1.3104
19938SOL    HW261256   7.259   4.376  12.225  0.4289  1.9192  0.5120
19939SOL     OW61257   3.324   3.063   7.833 -0.1668 -0.4825  0.5860
19939SOL    HW161258   3.279   2.982   7.807 -1.2771 -0.1954  1.5394
19939SOL    HW261259   3.409   3.032   7.866  0.2951 -1.0493 -1.0140
19940SOL     OW61260   2.530   7.385   9.100 -0.1484  0.0891 -0.6852
19940SOL    HW161261   2.583   7.451   9.055  0.2540 -0.4486 -1.0028
19940SOL    HW261262   2.531   7.309   9.041 -2.4655  0.5375 -1.4255
19941SOL     OW61263   0.951   5.854   1.681 -0.2512 -0.5718 -0.0962
19941SOL    HW161264   0.950   5.810   1.596  3.0339 -1.4508  0.1788
19941SOL    HW261265   0.968   5.784   1.743 -1.9348  0.1652  1.2890
19942SOL     OW61266   0.406   6.127   8.839 -0.0304  0.2212  0.4870
19942SOL    HW161267   0.424   6.221   8.847 -0.1665  0.2620  0.3331
19942SOL    HW261268   0.312   6.122   8.823  0.0834  0.1049 -0.1958
19943SOL     OW61269   7.589   0.252   8.205  0.2834  0.2330  0.5398
19943SOL    HW161270   7.509   0.302   8.221 -0.2151 -0.0947 -0.8481
19943SOL    HW261271   7.566   0.161   8.225 -0.6120 -0.3327 -2.5468
19944SOL     OW61272   6.998   0.660   7.410 -0.1641 -0.4357 -0.0063
19944SOL    HW161273   6.943   0.584   7.391 -2.6775  1.3518 -0.5236
19944SOL    HW261274   6.941   0.717   7.463  0.5689  2.2190 -1.8656
19945SOL     OW61275   3.441   6.712   3.811  0.3581  0.1022 -0.6435
19945SOL    HW161276   3.350   6.714   3.838  0.4226  1.4024 -0.4576
19945SOL    HW261277   3.456   6.622   3.782 -0.9972 -0.1047 -0.7482
19946SOL     OW61278   1.582   2.017  12.164  0.2545  0.2794 -0.0122
19946SOL    HW161279   1.496   1.976  12.163  0.3670  0.0136 -2.0636
19946SOL    HW261280   1.566   2.108  12.189 -0.6132  0.2036 -0.2845
19947SOL     OW61281   4.864   1.763   1.592 -0.3855 -0.1063 -0.5824
19947SOL    HW161282   4.888   1.822   1.664 -0.4981 -1.4984  0.6543
19947SOL    HW261283   4.809   1.816   1.535  0.5570  1.3433 -0.2112
19948SOL     OW61284   2.878   3.958   5.182  0.5873 -0.0145 -0.3951
19948SOL    HW161285   2.850   4.024   5.245 -1.5201  0.8903 -2.1433
19948SOL    HW261286   2.955   3.995   5.140  1.0845  0.0507  0.5553
19949SOL     OW61287   6.623   4.223   3.892  0.5422  0.0018 -0.2243
19949SOL    HW161288   6.620   4.134   3.927 -0.5903 -0.2814 -0.9643
19949SOL    HW261289   6.553   4.270   3.938 -0.7034 -0.2694 -1.7379
19950SOL     OW61290   3.224   5.457   1.484 -0.2091 -0.2373 -0.1604
19950SOL    HW161291   3.202   5.541   1.525 -0.1647  0.0063 -0.6290
19950SOL    HW261292   3.270   5.482   1.404  0.6040 -0.7173  0.1445
19951SOL     OW61293   0.142   6.386   3.811 -0.3725 -0.5150  0.4424
19951SOL    HW161294   0.052   6.415   3.826 -0.4549 -1.0576  1.0136
19951SOL    HW261295   0.181   6.382   3.898  0.4658  0.5283  0.1359
19952SOL     OW61296   2.456   6.181   0.710 -0.3539 -0.5691  0.4632
19952SOL    HW161297   2.374   6.222   0.737 -0.0635  0.9553 -0.8455
19952SOL    HW261298   2.508   6.177   0.791  0.1684  3.1223  0.4790
19953SOL     OW61299   3.031   7.119   4.432 -0.0497 -0.3077  0.1673
19953SOL    HW161300   3.099   7.071   4.479 -0.5941 -0.6073  0.6549
19953SOL    HW261301   2.979   7.161   4.500 -0.6960 -0.5477 -0.1692
19954SOL     OW61302   3.641   4.211   5.308  0.2143 -0.1901  0.7061
19954SOL    HW161303   3.616   4.190   5.398 -0.7510 -2.2754  0.0178
19954SOL    HW261304   3.569   4.263   5.273 -0.2601 -0.8884  0.6243
19955SOL     OW61305   5.437   1.576   3.497  0.6144  0.3653 -0.3532
19955SOL    HW161306   5.346   1.558   3.522  0.9387 -0.4506  0.2789
19955SOL    HW261307   5.432   1.656   3.444 -0.6487 -0.5128 -1.6177
19956SOL     OW61308   6.697   7.169   1.926 -0.0163  0.5923 -0.4711
19956SOL    HW161309   6.703   7.125   2.011  1.3118  0.4085 -0.6437
19956SOL    HW261310   6.657   7.254   1.946  2.4135  1.5286  0.7356
19957SOL     OW61311   4.267   3.710   2.987  0.7211  0.1936 -0.5131
19957SOL    HW161312   4.198   3.769   3.018  1.7604  1.0783  0.2040
19957SOL    HW261313   4.221   3.631   2.960 -0.4457  0.2630  1.1526
19958SOL     OW61314   5.273   5.506   2.527 -0.1159  0.0745 -0.3337
19958SOL    HW161315   5.326   5.572   2.572 -0.1494 -1.3273  1.9034
19958SOL    HW261316   5.337   5.440   2.499 -0.1664  0.6601 -1.9885
19959SOL     OW61317   3.311   7.663   3.003 -0.2082  0.0055 -0.4323
19959SOL    HW161318   3.251   7.681   2.931 -0.5853  0.0753 -0.1037
19959SOL    HW261319   3.263   7.688   3.082 -0.2216 -1.0980 -0.0708
19960SOL     OW61320   1.209   2.334   9.906 -0.0970  0.3014 -0.1669
19960SOL    HW161321   1.185   2.327   9.814 -1.0369  1.4657 -0.0352
19960SOL    HW261322   1.131   2.304   9.953  0.7998 -1.4586  0.2752
19961SOL     OW61323   1.758   2.010   0.162 -0.0650  0.2673  0.1878
19961SOL    HW161324   1.702   2.088   0.169  0.9235  1.0023  0.0752
19961SOL    HW261325   1.701   1.938   0.188 -0.9328  1.0563  0.5468
19962SOL     OW61326   1.441   6.918   3.397  0.1711 -0.7205 -0.3760
19962SOL    HW161327   1.463   7.012   3.399 -0.0801 -0.6638 -0.2369
19962SOL    HW261328   1.352   6.914   3.432 -0.3217 -0.8709 -1.6084
19963SOL     OW61329   4.788   7.610   2.839 -0.2385 -0.4495 -0.0335
19963SOL    HW161330   4.756   7.529   2.800  0.0151 -2.2199  3.1075
19963SOL    HW261331   4.710   7.652   2.876  0.1189 -1.6255  2.2230
19964SOL     OW61332   7.550   5.106   1.920  0.0970  0.5345 -0.0848
19964SOL    HW161333   7.564   5.182   1.862  2.3496  2.5946  2.8646
19964SOL    HW261334   7.637   5.068   1.930 -0.5419 -0.7746  0.6646
19965SOL     OW61335   1.596   5.228   5.837  1.1863  0.4506  0.1965
19965SOL    HW161336   1.645   5.147   5.844  0.6776  0.1465  0.2825
19965SOL    HW261337   1.549   5.220   5.754 -0.5712 -0.3147  1.2116
19966SOL     OW61338   0.036   5.968   2.540 -0.2706  0.1051  0.0940
19966SOL    HW161339  -0.000   5.976   2.452 -0.5504 -0.3707  0.1641
19966SOL    HW261340   0.073   5.880   2.544  1.5919  0.8240 -0.2278
19967SOL     OW61341   5.781   2.379   8.383 -0.0334  0.1709 -0.0842
19967SOL    HW161342   5.839   2.380   8.459 -0.6657  0.2654  0.4119
19967SOL    HW261343   5.805   2.457   8.332  0.4634  0.0486 -0.0391
19968SOL     OW61344   3.868   3.528  10.957  0.2473 -0.2138 -0.6750
19968SOL    HW161345   3.782   3.535  10.999  0.4191 -0.4355 -0.2759
19968SOL    HW261346   3.901   3.618  10.955 -0.0474 -0.1127 -0.9418
19969SOL     OW61347   2.107   3.351   2.919 -0.0206 -0.3852 -0.1670
19969SOL    HW161348   2.165   3.427   2.916  0.9689 -1.1548 -1.2058
19969SOL    HW261349   2.041   3.374   2.984 -0.5862  1.9416 -1.4875
19970SOL     OW61350   1.995   7.377   4.644  0.0696  1.0350 -0.4156
19970SOL    HW161351   1.904   7.349   4.658  0.1261  0.0571 -1.7382
19970SOL    HW261352   2.000   7.465   4.682 -1.5604  1.2908 -0.7358
19971SOL     OW61353   5.159   4.932   9.903 -0.0750  0.0493  0.4741
19971SOL    HW161354   5.248   4.951   9.871 -0.5275 -0.0356 -0.8966
19971SOL    HW261355   5.168   4.933   9.998  1.4599 -0.2407  0.3706
19972SOL     OW61356   7.771   3.369   7.007  0.2116 -0.0159 -0.3162
19972SOL    HW161357   7.786   3.441   6.946  0.4761 -0.0288 -0.2675
19972SOL    HW261358   7.731   3.300   6.953  0.9131 -0.2164 -0.5945
19973SOL     OW61359   5.563   5.235   6.872  0.0955 -0.3994 -0.2455
19973SOL    HW161360   5.581   5.327   6.891 -1.0438 -0.4001  1.0112
19973SOL    HW261361   5.618   5.187   6.934 -3.1111 -0.4154  2.8924
19974SOL     OW61362   2.171   6.561   0.281  0.2405  0.4507  0.2300
19974SOL    HW161363   2.150   6.533   0.370 -2.3641  0.1810 -0.3724
19974SOL    HW261364   2.184   6.656   0.289 -0.5076  0.5171  0.8552
19975SOL     OW61365   5.626   5.003   5.796  0.5183  0.2716 -0.2561
19975SOL    HW161366   5.576   5.083   5.780  1.5532  1.2548  1.1524
19975SOL    HW261367   5.573   4.933   5.758 -0.5854  1.5734 -1.2126
19976SOL     OW61368   2.124   2.797  12.018  0.2805 -0.5375  0.3018
19976SOL    HW161369   2.091   2.775  11.931 -0.1181 -0.9219  0.5509
19976SOL    HW261370   2.118   2.716  12.067 -2.6490  0.4253  1.7115
19977SOL     OW61371   4.857   4.818   2.906  0.3839 -0.5896  0.1415
19977SOL    HW161372   4.906   4.880   2.960 -0.2258  1.8665 -1.9147
19977SOL    HW261373   4.879   4.843   2.816 -2.3370 -1.3297 -0.8204
19978SOL     OW61374   1.382   3.057   6.625 -0.2578 -0.1447 -0.3172
19978SOL    HW161375   1.314   2.993   6.602 -0.2168 -0.5669  0.7049
19978SOL    HW261376   1.397   3.105   6.544 -1.2749 -0.5143 -0.7447
19979SOL     OW61377   5.955   1.172   9.475 -0.0430  0.7683  0.1596
19979SOL    HW161378   5.941   1.267   9.475 -2.4213  0.5035  1.2530
19979SOL    HW261379   5.871   1.136   9.504  0.2206 -1.7820 -1.8647
19980SOL     OW61380   1.080   0.849   7.793  0.1720  0.0911 -0.6505
19980SOL    HW161381   1.053   0.757   7.789  0.6742 -0.0220 -3.1845
19980SOL    HW261382   1.172   0.848   7.764  0.6257  1.2667  0.6358
19981SOL     OW61383   2.869   2.118  11.078  0.4550  0.0667 -0.0044
19981SOL    HW161384   2.924   2.176  11.026 -0.4571  0.8955 -0.0662
19981SOL    HW261385   2.853   2.043  11.020  1.3083 -0.0701 -0.0710
19982SOL     OW61386   5.788   7.010   4.317  0.0288 -0.0036 -0.4691
19982SOL    HW161387   5.848   6.984   4.247  0.1298 -0.4572 -0.2164
19982SOL    HW261388   5.844   7.051   4.383  0.0273 -0.1951 -0.3478
19983SOL     OW61389   5.061   4.357  11.980 -0.3402 -0.0817  0.4125
19983SOL    HW161390   5.106   4.273  11.978  1.4605  0.8355  0.2517
19983SOL    HW261391   5.018   4.363  11.894  2.2169  0.5048 -0.9281
19984SOL     OW61392   5.506   6.384  11.521 -0.6637  0.1171  0.0329
19984SOL    HW161393   5.501   6.438  11.600 -2.2442  2.1218 -1.3135
19984SOL    HW261394   5.579   6.421  11.472  0.1227 -0.9286  0.3879
19985SOL     OW61395   5.061   2.870   8.316  0.0071 -0.3752  0.7734
19985SOL    HW161396   5.099   2.866   8.228  1.6693 -0.1049  1.4513
19985SOL    HW261397   4.992   2.936   8.309  1.1699  0.8138  0.0250
19986SOL     OW61398   3.584   3.121   5.828  0.1738 -0.1771 -0.1711
19986SOL    HW161399   3.531   3.201   5.821  0.4884 -0.0105 -0.6391
19986SOL    HW261400   3.519   3.051   5.840 -0.1552  0.0366 -0.6434
19987SOL     OW61401   2.033   1.525  10.392  0.4904  0.0395  0.0198
19987SOL    HW161402   2.067   1.606  10.352  2.0865  0.2616  1.6800
19987SOL    HW261403   1.938   1.538  10.394  0.7419  2.2090  0.8631
19988SOL     OW61404   6.961   0.822   3.481 -0.4934 -0.4194 -0.2684
19988SOL    HW161405   6.908   0.763   3.427  0.0891 -2.1014  0.8976
19988SOL    HW261406   7.025   0.860   3.421 -1.5554 -0.1200 -1.2472
19989SOL     OW61407   7.453   1.834   9.878 -0.4891  0.2442 -0.2264
19989SOL    HW161408   7.364   1.861   9.851 -0.9332 -0.8431  0.0974
19989SOL    HW261409   7.439   1.752   9.926  0.8442 -0.8622 -1.6223
19990SOL     OW61410   7.333   6.111   8.301  0.6671 -0.0750 -0.1491
19990SOL    HW161411   7.343   6.046   8.371  1.3801 -0.6827 -0.7987
19990SOL    HW261412   7.418   6.114   8.259  0.3803  0.6396 -0.6932
19991SOL     OW61413   4.630   6.503   4.954 -0.0087 -0.1883 -0.6146
19991SOL    HW161414   4.573   6.513   4.878 -0.9747 -0.6657  0.0278
19991SOL    HW261415   4.644   6.409   4.963 -0.7654 -0.2273  0.3939
19992SOL     OW61416   1.779   3.840   9.784  0.6213  0.3150  0.3401
19992SOL    HW161417   1.804   3.767   9.840  0.5205  0.8845  1.1348
19992SOL    HW261418   1.860   3.887   9.767  0.5382  0.5477  0.5903
19993SOL     OW61419   6.173   3.726   2.600  0.5664 -0.1493  0.2691
19993SOL    HW161420   6.194   3.651   2.657 -1.3089 -0.5956  0.4496
19993SOL    HW261421   6.126   3.688   2.527 -1.8426  0.9545  1.1359
19994SOL     OW61422   5.704   1.410   5.702  0.3533 -0.1769 -0.1304
19994SOL    HW161423   5.626   1.450   5.663  0.2450 -0.0885  0.1778
19994SOL    HW261424   5.763   1.483   5.717  0.2296 -0.1560  0.2582
19995SOL     OW61425   0.424   4.685  11.269 -0.6834 -0.3015 -0.4960
19995SOL    HW161426   0.365   4.761  11.267  0.7619  0.8547 -1.1934
19995SOL    HW261427   0.510   4.721  11.249  0.0875 -2.1171 -0.6424
19996SOL     OW61428   1.570   4.530   6.954 -0.6102  0.5745  0.1291
19996SOL    HW161429   1.523   4.541   6.871 -2.2901 -1.9649  0.6460
19996SOL    HW261430   1.508   4.558   7.021 -0.1842  0.2753  0.6595
19997SOL     OW61431   3.877   0.362   8.636 -0.1068 -0.5460 -0.6935
19997SOL    HW161432   3.970   0.365   8.659  0.1695  1.1754 -1.8246
19997SOL    HW261433   3.869   0.425   8.564 -2.5191  0.8059  0.6698
19998SOL     OW61434   4.308   4.949   6.351  0.2601 -0.3286  0.4428
19998SOL    HW161435   4.229   4.938   6.297  1.8731 -2.9540 -1.6161
19998SOL    HW261436   4.322   5.044   6.352 -0.8697 -0.0088 -2.3433
19999SOL     OW61437   7.093   3.086   7.308 -0.4870 -0.1209 -0.0913
19999SOL    HW161438   7.135   3.170   7.286  0.4969 -0.9973 -1.8578
19999SOL    HW261439   7.038   3.106   7.383  1.1380  1.6930  0.7185
20000SOL     OW61440   0.243   3.259  10.379  0.4378  0.0988  0.2026
20000SOL    HW161441   0.195   3.228  10.302  0.8219  0.7378 -0.3057
20000SOL    HW261442   0.334   3.231  10.363  0.9418  2.0178 -0.6105
20001SOL     OW61443   0.969   5.979   5.932  0.7913  0.2849  0.2049
20001SOL    HW161444   0.983   5.989   6.027  2.0204  1.2341 -0.0517
20001SOL    HW261445   0.881   6.014   5.917  0.5934  0.1486  0.9884
20002SOL     OW61446   5.731   1.604   2.114  0.4213  0.1359 -0.0307
20002SOL    HW161447   5.684   1.685   2.132  0.3279  0.1264 -0.2332
20002SOL    HW261448   5.664   1.536   2.117  0.6976 -0.1077  1.4345
20003SOL     OW61449   5.095   5.129   4.367 -0.1744  0.0368  0.1307
20003SOL    HW161450   5.072   5.097   4.280  0.1982 -1.6860  0.6202
20003SOL    HW261451   5.120   5.050   4.415 -1.0143  0.8636  2.0104
20004SOL     OW61452   0.509   3.729  11.307  0.0321  0.2228 -0.0794
20004SOL    HW161453   0.418   3.745  11.280 -0.9109 -0.5007  2.3783
20004SOL    HW261454   0.533   3.649  11.260 -0.5773  0.4252 -0.7725
20005SOL     OW61455   7.317   3.051   6.378  0.1156  0.1876  0.0914
20005SOL    HW161456   7.295   3.042   6.286 -1.4014 -0.2633  0.4722
20005SOL    HW261457   7.358   2.968   6.402  1.4824  0.6995 -0.4143
20006SOL     OW61458   1.440   4.069   8.900 -0.5993  0.5093  0.3372
20006SOL    HW161459   1.508   4.134   8.882  2.0085 -2.1682 -0.1565
20006SOL    HW261460   1.368   4.093   8.842  1.2832  1.4874 -1.7570
20007SOL     OW61461   6.346   3.993   1.636 -0.4361 -0.8933  0.1155
20007SOL    HW161462   6.285   3.922   1.619 -0.9207 -0.0645 -1.7703
20007SOL    HW261463   6.402   3.996   1.558  0.6444 -0.2632  0.8871
20008SOL     OW61464   5.801   7.844   2.932  0.1156 -0.1293 -0.1231
20008SOL    HW161465   5.764   7.924   2.969  0.2500  1.2062 -2.6013
20008SOL    HW261466   5.812   7.864   2.839  3.3302 -1.8444 -0.2551
20009SOL     OW61467   6.192   1.057   4.771 -0.0777  0.4726  0.3413
20009SOL    HW161468   6.258   1.071   4.840 -0.0247 -1.1654  0.6711
20009SOL    HW261469   6.177   0.962   4.772  0.3578  0.3230 -2.3205
20010SOL     OW61470   1.046   2.215  10.324 -0.5702 -0.2299  0.1634
20010SOL    HW161471   0.984   2.239  10.393  0.5814 -0.3371  1.2940
20010SOL    HW261472   1.098   2.144  10.363  0.0949 -0.3182 -0.8399
20011SOL     OW61473   7.881   4.581   7.833 -0.0430 -0.1660  0.4442
20011SOL    HW161474   7.904   4.489   7.822  0.7435  0.1624 -0.9102
20011SOL    HW261475   7.794   4.589   7.795  0.6081 -0.0352 -1.0900
20012SOL     OW61476   2.115   0.414   6.854 -0.1344  0.2137 -0.0745
20012SOL    HW161477   2.048   0.444   6.792  1.0766  0.3132 -1.3729
20012SOL    HW261478   2.165   0.349   6.806 -0.3116 -1.1181  1.4468
20013SOL     OW61479   1.399   3.013   7.097  0.4559  0.2324  0.4259
20013SOL    HW161480   1.444   3.071   7.036 -1.0964 -0.4110 -1.4365
20013SOL    HW261481   1.333   3.068   7.139 -1.0494 -0.1422 -1.3758
20014SOL     OW61482   7.247   2.766   8.033  0.3701 -0.3593 -0.3434
20014SOL    HW161483   7.198   2.685   8.050 -0.0792 -0.3684 -1.5852
20014SOL    HW261484   7.286   2.752   7.946  1.0432  0.4050 -0.1777
20015SOL     OW61485   0.065   7.922   3.127  0.2341 -0.1560  0.1685
20015SOL    HW161486   0.157   7.911   3.151  0.3854  0.5576 -0.0646
20015SOL    HW261487   0.049   7.854   3.061  1.4844  1.6447 -2.1459
20016SOL     OW61488   1.809   5.809   0.700  0.2239  0.2144  0.2748
20016SOL    HW161489   1.791   5.899   0.671  0.4149  0.7044  1.6141
20016SOL    HW261490   1.806   5.757   0.619  0.4985  1.4742 -0.5765
20017SOL     OW61491   4.729   5.839  10.411 -1.0147  0.9048 -0.1468
20017SOL    HW161492   4.806   5.803  10.366 -0.7557  0.7656  0.4043
20017SOL    HW261493   4.672   5.869  10.340 -0.0453  1.8743 -0.5426
20018SOL     OW61494   5.624   5.079   2.517  0.1921 -0.0570  0.2706
20018SOL    HW161495   5.578   5.012   2.568 -1.8297  2.4865  2.0959
20018SOL    HW261496   5.708   5.090   2.562  0.2025 -0.7974  0.4403
20019SOL     OW61497   4.706   5.598   1.609 -0.1670 -0.3921 -0.0325
20019SOL    HW161498   4.675   5.528   1.667 -0.6693 -0.5950 -0.5396
20019SOL    HW261499   4.660   5.583   1.527 -0.8157  0.9253  0.0526
20020SOL     OW61500   0.607   7.710   5.819  0.1808 -0.0025 -0.0765
20020SOL    HW161501   0.654   7.628   5.835  1.0355  0.5874  0.5148
20020SOL    HW261502   0.529   7.683   5.772 -0.4325 -1.3756  1.6069
20021SOL     OW61503   6.578   3.010   0.169  0.3320  0.2319  0.0687
20021SOL    HW161504   6.634   3.067   0.117  0.4437  0.1531  0.1021
20021SOL    HW261505   6.534   3.068   0.231  0.2724  0.3125 -0.0491
20022SOL     OW61506   4.675   0.705  10.602 -0.3352 -0.2930  0.1692
20022SOL    HW161507   4.754   0.697  10.655 -0.4722 -1.0886  0.2760
20022SOL    HW261508   4.604   0.682  10.662 -0.9412  2.7905  0.7749
20023SOL     OW61509   7.598   3.527   5.151  0.5181  0.1869  0.4943
20023SOL    HW161510   7.689   3.517   5.121  0.9436  0.9681  1.4679
20023SOL    HW261511   7.595   3.480   5.235 -1.1796 -3.7643 -1.5004
20024SOL     OW61512   7.244   6.369  10.207  0.3476  0.0818  0.0046
20024SOL    HW161513   7.174   6.380  10.273 -1.3216 -1.0337 -1.4813
20024SOL    HW261514   7.315   6.327  10.255 -0.6451 -0.2900  1.2253
20025SOL     OW61515   7.095   5.294   3.897  0.1927 -0.1561  0.1131
20025SOL    HW161516   7.025   5.303   3.962 -0.4509  0.3825 -0.6290
20025SOL    HW261517   7.168   5.344   3.933 -0.6629  1.4132 -0.2575
20026SOL     OW61518   5.062   2.278   2.462  0.3265  0.0292  0.1756
20026SOL    HW161519   5.052   2.207   2.399 -0.5407 -0.1043  0.4536
20026SOL    HW261520   5.056   2.235   2.547  0.0241  0.4025  0.3437
20027SOL     OW61521   1.488   4.444   3.563  0.5238 -0.5729  0.0290
20027SOL    HW161522   1.578   4.409   3.561  0.4117 -0.8740  0.1316
20027SOL    HW261523   1.467   4.450   3.656  1.0808  1.2127  0.0841
20028SOL     OW61524   0.173   4.385   0.148  0.4379 -0.4395 -0.2846
20028SOL    HW161525   0.127   4.390   0.064  1.4244  0.6396 -0.7949
20028SOL    HW261526   0.233   4.460   0.146 -0.1473  0.1311  1.7799
20029SOL     OW61527   5.310   6.394   5.646  0.1862 -0.1781 -0.5671
20029SOL    HW161528   5.283   6.415   5.736 -0.8810 -1.3715 -0.5895
20029SOL    HW261529   5.251   6.445   5.591  0.2626 -0.1295 -0.6046
20030SOL     OW61530   7.581   0.810   5.949 -0.4666 -0.2750 -0.5685
20030SOL    HW161531   7.536   0.824   5.865  0.7747 -2.2624 -1.6422
20030SOL    HW261532   7.511   0.813   6.014 -1.6884 -0.1337 -1.8413
20031SOL     OW61533   7.370   1.466   5.821  0.2953 -0.8614  0.0101
20031SOL    HW161534   7.437   1.471   5.889 -0.0825  0.0027  0.3295
20031SOL    HW261535   7.301   1.411   5.859  1.6170 -3.4342 -1.0463
20032SOL     OW61536   1.307   6.796   5.674  0.1704 -0.2619 -0.0397
20032SOL    HW161537   1.307   6.890   5.693 -0.0769 -0.3743  0.5374
20032SOL    HW261538   1.399   6.771   5.679  0.5527  0.3973 -2.5733
20033SOL     OW61539   1.501   0.608   3.692 -0.2843  0.7020  0.6624
20033SOL    HW161540   1.571   0.543   3.701 -0.2355  0.6405 -0.0914
20033SOL    HW261541   1.441   0.588   3.764 -1.0450 -1.1792 -0.4227
20034SOL     OW61542   5.047   6.881   4.848 -0.0503 -0.5383 -0.5320
20034SOL    HW161543   5.058   6.797   4.892 -0.7086 -0.1181  0.4772
20034SOL    HW261544   5.103   6.875   4.771 -1.9982 -2.9106 -1.9235
20035SOL     OW61545   5.307   3.399   8.128  0.1729 -0.1349 -0.3388
20035SOL    HW161546   5.385   3.451   8.109  0.1410  0.2667  0.5750
20035SOL    HW261547   5.233   3.455   8.104  0.1560 -0.2187 -0.4818
20036SOL     OW61548   1.000   6.531   6.092 -0.3299  0.2374  0.6024
20036SOL    HW161549   0.930   6.575   6.044  0.6646 -0.1738 -1.3547
20036SOL    HW261550   1.080   6.559   6.048  0.5235 -1.4201  1.0212
20037SOL     OW61551   0.740   5.911   0.497 -0.1973  0.1916 -0.2179
20037SOL    HW161552   0.667   5.965   0.528 -0.0483  0.2952 -0.0454
20037SOL    HW261553   0.713   5.821   0.516 -0.4229  0.2081 -0.4562
20038SOL     OW61554   6.586   4.380   0.629  0.1532 -0.3053 -0.2267
20038SOL    HW161555   6.650   4.405   0.563 -0.9108  3.4959 -0.0399
20038SOL    HW261556   6.503   4.374   0.582 -0.3127  0.6624  0.4366
20039SOL     OW61557   3.265   6.494   0.928  0.4905  0.0370 -0.7285
20039SOL    HW161558   3.320   6.570   0.948  0.3772 -0.0831  0.0738
20039SOL    HW261559   3.312   6.419   0.964 -0.5031  0.0112  0.6010
20040SOL     OW61560   3.165   3.926   5.524 -0.0850 -0.1514 -0.0394
20040SOL    HW161561   3.236   3.972   5.570 -0.5519 -2.0465  2.8653
20040SOL    HW261562   3.087   3.944   5.576 -1.2952 -0.0131 -1.8386
20041SOL     OW61563   1.967   6.146   0.095  0.0696  0.0363  0.4077
20041SOL    HW161564   1.990   6.172   0.184  0.1971 -0.5245  0.5418
20041SOL    HW261565   1.916   6.065   0.106  0.0665 -0.0244 -0.0255
20042SOL     OW61566   2.965   1.079   7.826 -0.0013 -0.3278 -0.5585
20042SOL    HW161567   3.012   1.111   7.903  0.9880  0.4222 -1.4373
20042SOL    HW261568   2.992   0.988   7.818 -2.5377 -1.4252  1.7412
20043SOL     OW61569   5.112   7.692   8.137 -0.1696  0.0710 -0.4121
20043SOL    HW161570   5.043   7.752   8.163  0.1316  0.1407  0.2522
20043SOL    HW261571   5.065   7.618   8.098 -0.6194  0.1410 -0.0212
20044SOL     OW61572   0.257   4.963   7.658 -0.1026 -0.3960 -0.4587
20044SOL    HW161573   0.285   5.042   7.612 -1.1494  0.4913  0.3812
20044SOL    HW261574   0.273   4.892   7.596  0.2520  0.5447 -1.4749
20045SOL     OW61575   6.892   7.429   9.545 -0.1764  0.0013  0.0852
20045SOL    HW161576   6.896   7.441   9.450 -0.6378 -0.0073  0.0586
20045SOL    HW261577   6.960   7.365   9.565 -0.3118 -0.2646 -0.2881
20046SOL     OW61578   3.407   1.651   0.808  0.8449 -0.0058  0.2167
20046SOL    HW161579   3.400   1.558   0.829 -3.6495 -0.1766 -0.9880
20046SOL    HW261580   3.497   1.662   0.775  1.0918 -4.2457 -1.0764
20047SOL     OW61581   6.464   3.782   2.243  0.2284 -0.1272 -0.2847
20047SOL    HW161582   6.496   3.799   2.154 -0.1671 -0.5011 -0.5023
20047SOL    HW261583   6.373   3.756   2.231 -1.7281  5.0389  0.5868
20048SOL     OW61584   4.762   2.939  11.460 -0.1588  0.4130  0.0109
20048SOL    HW161585   4.678   2.899  11.483 -0.2743  0.7720  0.2215
20048SOL    HW261586   4.787   2.989  11.538  0.4844 -0.0781  0.1304
20049SOL     OW61587   3.484   5.959  11.064  0.0086  0.2525 -0.1572
20049SOL    HW161588   3.498   6.036  11.119  3.8748  0.4110 -1.0522
20049SOL    HW261589   3.568   5.913  11.066 -0.5682 -1.2537 -3.5614
20050SOL     OW61590   0.720   4.781   6.974  0.2931  0.2498 -0.4253
20050SOL    HW161591   0.785   4.732   7.024 -0.3652 -0.3225 -0.1265
20050SOL    HW261592   0.636   4.752   7.008 -0.1273  1.1488 -0.6523
20051SOL     OW61593   4.895   5.505   1.009 -0.1141 -0.2808 -0.3458
20051SOL    HW161594   4.821   5.513   0.949 -0.5653  1.2279  0.3436
20051SOL    HW261595   4.860   5.457   1.084  0.2108 -1.4126 -0.9037
20052SOL     OW61596   2.609   6.093   9.341  0.0226  0.1117  0.0694
20052SOL    HW161597   2.679   6.136   9.390 -0.7517  1.7020 -0.1601
20052SOL    HW261598   2.649   6.068   9.257  0.3195  1.0361 -0.0715
20053SOL     OW61599   1.949   2.228   9.638  0.0241  0.2200  0.6743
20053SOL    HW161600   1.994   2.231   9.554 -1.0577 -3.2559 -0.2106
20053SOL    HW261601   1.899   2.310   9.641 -0.4924  0.1563 -2.4615
20054SOL     OW61602   4.939   2.554   7.254 -0.2088  0.2165  0.4753
20054SOL    HW161603   4.930   2.528   7.163 -3.8005  0.5399  0.5743
20054SOL    HW261604   4.942   2.472   7.303  1.0071  0.0495  0.1523
20055SOL     OW61605   0.400   1.328   7.851 -0.3525  0.2422 -0.2251
20055SOL    HW161606   0.317   1.289   7.822 -1.3716  2.7110 -0.8416
20055SOL    HW261607   0.375   1.389   7.920  0.9442  1.0569 -0.4483
20056SOL     OW61608   7.388   2.181   8.481 -0.0306  0.0414 -0.9270
20056SOL    HW161609   7.371   2.107   8.539  1.6561 -0.7590 -1.3993
20056SOL    HW261610   7.303   2.203   8.443 -0.4470 -2.1315 -1.3400
20057SOL     OW61611   4.026   5.675   1.312  0.8130  0.3372  0.3411
20057SOL    HW161612   3.979   5.757   1.329  1.5627  0.8921 -0.2355
20057SOL    HW261613   4.116   5.692   1.340  0.5235 -1.0308  2.3512
20058SOL     OW61614   4.172   1.243   8.359 -0.1835  0.2734  0.3814
20058SOL    HW161615   4.103   1.261   8.423 -0.0875  1.4925  0.1720
20058SOL    HW261616   4.238   1.193   8.408 -1.4828 -1.4758  0.4138
20059SOL     OW61617   3.873   7.621   0.216  0.1177 -0.8836  0.1422
20059SOL    HW161618   3.857   7.568   0.295 -1.7372 -1.0151 -0.2730
20059SOL    HW261619   3.824   7.702   0.231  1.0697 -0.2295 -0.2044
20060SOL     OW61620   5.956   5.062   5.680 -0.5645  0.4784  0.5470
20060SOL    HW161621   5.871   5.075   5.639 -1.7531 -0.5097  2.4937
20060SOL    HW261622   5.976   4.969   5.664  0.1107  0.6926  0.1478
20061SOL     OW61623   0.087   2.269   6.994 -0.1283 -0.0831 -0.4125
20061SOL    HW161624   0.022   2.250   6.926 -1.1274  0.6905  0.2934
20061SOL    HW261625   0.148   2.330   6.953 -1.4302  1.3796 -0.2853
20062SOL     OW61626   0.992   3.908  11.382 -0.3870  0.3764 -0.7488
20062SOL    HW161627   0.985   3.985  11.438 -0.9343  0.1679 -0.5270
20062SOL    HW261628   1.073   3.866  11.410 -1.0053 -0.1100  0.3845
20063SOL     OW61629   1.266   2.626   6.401 -0.1365 -0.0920 -0.0851
20063SOL    HW161630   1.295   2.625   6.310  2.6742 -1.7419  0.6721
20063SOL    HW261631   1.191   2.567   6.403 -0.2730  0.0123 -1.3280
20064SOL     OW61632   4.628   7.008   4.979 -0.5280 -0.1460  0.3877
20064SOL    HW161633   4.667   6.954   5.048 -0.7275  1.2819  1.6585
20064SOL    HW261634   4.702   7.052   4.938 -0.5373  0.3740  0.9077
20065SOL     OW61635   2.314   2.913  10.854  0.0053  0.3398 -0.6862
20065SOL    HW161636   2.409   2.900  10.854  0.0953 -0.2153  3.5761
20065SOL    HW261637   2.303   3.008  10.852  0.6867  0.4333 -0.3097
20066SOL     OW61638   5.772   6.453   3.474 -0.2181  0.2920  0.1475
20066SOL    HW161639   5.694   6.491   3.433  0.6982  1.5047 -0.5608
20066SOL    HW261640   5.799   6.383   3.415 -0.7607 -0.1181  0.3847
20067SOL     OW61641   1.966   6.616  11.753  0.0926 -0.7069 -0.0059
20067SOL    HW161642   2.028   6.677  11.793  0.3653  0.1112 -1.6269
20067SOL    HW261643   1.937   6.561  11.826  3.5600 -1.8975  0.6597
20068SOL     OW61644   7.592   2.290   0.411  0.3060 -0.4350  0.5103
20068SOL    HW161645   7.673   2.303   0.461  0.8012 -0.3541 -0.3054
20068SOL    HW261646   7.619   2.240   0.334 -0.0331  1.3893 -0.8371
20069SOL     OW61647   3.060   6.343   2.850  0.4633 -0.0591 -0.5036
20069SOL    HW161648   3.008   6.320   2.773  0.9732 -0.0143 -0.8700
20069SOL    HW261649   2.996   6.353   2.920 -0.0133 -0.0622 -0.9302
20070SOL     OW61650   4.285   3.648   6.857  0.1701  0.1203 -0.4194
20070SOL    HW161651   4.272   3.731   6.904  0.2058  0.6262 -1.2828
20070SOL    HW261652   4.378   3.629   6.868 -0.1457 -0.6803  1.1706
20071SOL     OW61653   2.051   3.090  11.795  0.2338  0.3449  0.3923
20071SOL    HW161654   2.061   3.100  11.890  1.5702  0.0055  0.3045
20071SOL    HW261655   2.073   3.177  11.761 -1.0684  0.7077  0.4236
20072SOL     OW61656   0.725   6.511  12.020  0.3068 -0.1571 -0.6461
20072SOL    HW161657   0.700   6.453  12.092 -1.5036 -1.4833 -2.2204
20072SOL    HW261658   0.805   6.471  11.984 -1.3170 -2.2879 -2.1784
20073SOL     OW61659   0.318   5.826   6.865  0.4058 -0.6068 -0.0375
20073SOL    HW161660   0.378   5.753   6.884  1.7025  0.6850  1.1160
20073SOL    HW261661   0.306   5.822   6.770  4.1605  0.3434 -0.7393
20074SOL     OW61662   6.659   0.786   6.829 -0.3355  0.0080  0.4405
20074SOL    HW161663   6.707   0.728   6.887 -0.6514  0.7054  1.4094
20074SOL    HW261664   6.637   0.731   6.753  1.3648 -0.5020  0.2784
20075SOL     OW61665   4.223   2.364   9.275 -0.0862  0.7592  0.3570
20075SOL    HW161666   4.248   2.272   9.277  0.3447  0.8386  3.5259
20075SOL    HW261667   4.145   2.367   9.219 -0.3823 -1.5857  0.5632
20076SOL     OW61668   7.486   3.224   0.979  0.4170 -0.1373  0.1742
20076SOL    HW161669   7.548   3.294   0.960  0.7302 -0.1991  0.9447
20076SOL    HW261670   7.529   3.171   1.046 -1.0547  0.6494  1.8337
20077SOL     OW61671   4.994   4.010   8.600 -0.0146  0.0880 -0.3176
20077SOL    HW161672   5.020   4.082   8.657  0.6310 -0.0733 -0.4053
20077SOL    HW261673   4.989   3.934   8.659  2.3210 -0.4561 -0.7270
20078SOL     OW61674   3.028   2.221   2.066 -0.0963  0.0868  0.2817
20078SOL    HW161675   3.070   2.255   1.987 -0.7441  1.4788  0.5232
20078SOL    HW261676   2.946   2.269   2.074  0.1672  0.3251  2.0554
20079SOL     OW61677   2.921   7.247   1.711  0.4589  0.8425 -0.0611
20079SOL    HW161678   2.868   7.262   1.790  2.0098  0.4386  1.1189
20079SOL    HW261679   2.976   7.325   1.704  0.8247  0.5609 -0.3357
20080SOL     OW61680   1.988   6.344   9.851 -0.0675 -0.2859  0.1613
20080SOL    HW161681   1.998   6.437   9.869  0.9893 -0.3943  0.2004
20080SOL    HW261682   2.062   6.322   9.795  0.5521 -1.4125  1.3650
20081SOL     OW61683   6.854   0.837   7.529  0.2552  0.1655  0.2999
20081SOL    HW161684   6.880   0.915   7.579  1.4701 -0.3816  0.5620
20081SOL    HW261685   6.798   0.788   7.589 -0.1187  0.5937  0.3077
20082SOL     OW61686   6.579   5.290   7.519 -0.4939 -0.1670  0.5409
20082SOL    HW161687   6.505   5.248   7.476 -0.8824  2.0004 -1.0628
20082SOL    HW261688   6.655   5.236   7.495 -1.0250 -0.2373 -1.0928
20083SOL     OW61689   0.965   0.365   5.107  0.3477  0.0681  0.5556
20083SOL    HW161690   0.993   0.424   5.177 -1.0303  0.1177  1.0925
20083SOL    HW261691   0.893   0.315   5.146 -0.0200 -0.3438 -0.6323
20084SOL     OW61692   1.787   5.552   2.326 -0.3047  0.1248 -0.1154
20084SOL    HW161693   1.742   5.564   2.410 -0.0377 -0.8855  0.1838
20084SOL    HW261694   1.804   5.458   2.321  0.3563  0.2790 -0.9589
20085SOL     OW61695   3.612   1.404   7.021 -0.4555  0.4059 -0.2664
20085SOL    HW161696   3.649   1.470   6.963  1.5652 -1.3853 -1.1761
20085SOL    HW261697   3.633   1.321   6.978  1.0545 -1.0310  2.9060
20086SOL     OW61698   0.959   2.138   9.128  0.2011  0.1037  0.0214
20086SOL    HW161699   0.998   2.205   9.185  2.1262  0.2752 -1.3956
20086SOL    HW261700   1.027   2.071   9.120 -0.9675 -1.0884 -0.1495
20087SOL     OW61701   7.635   6.000  11.396  0.9817  0.1640 -0.4377
20087SOL    HW161702   7.552   6.004  11.348  0.6379 -0.7935  0.0573
20087SOL    HW261703   7.682   5.926  11.357  1.5238  0.5784 -0.5836
20088SOL     OW61704   6.513   2.454   5.103  0.0704 -0.0447  0.3460
20088SOL    HW161705   6.529   2.512   5.177 -0.6949 -0.5526  0.9170
20088SOL    HW261706   6.493   2.513   5.030 -0.2059  0.4264  0.7999
20089SOL     OW61707   3.227   4.610   0.012 -0.3675  0.0195 -0.5224
20089SOL    HW161708   3.175   4.627  -0.067 -1.3073 -1.0189 -0.1523
20089SOL    HW261709   3.163   4.580   0.076  0.6804 -1.2061 -0.0129
20090SOL     OW61710   4.344   6.674   3.808  0.1109  0.3373  0.6121
20090SOL    HW161711   4.352   6.608   3.739 -1.1372  0.2560  0.5125
20090SOL    HW261712   4.274   6.732   3.777  1.6788  2.1765  0.3478
20091SOL     OW61713   0.559   1.418   1.123 -0.1660  0.0302  0.0831
20091SOL    HW161714   0.614   1.486   1.083 -0.9707  0.9589  0.5182
20091SOL    HW261715   0.599   1.403   1.209 -0.6718  0.8381  0.4747
20092SOL     OW61716   4.602   3.923  12.286  0.4858 -0.5197 -0.1661
20092SOL    HW161717   4.533   3.975  12.328  0.3895 -1.0036  0.2891
20092SOL    HW261718   4.580   3.832  12.306  1.3972 -0.6715  0.2159
20093SOL     OW61719   5.484   5.559   3.907 -0.1352  0.0538 -0.2216
20093SOL    HW161720   5.465   5.553   4.001 -0.8188 -1.6006 -0.4326
20093SOL    HW261721   5.578   5.544   3.900 -0.3579 -1.6238  0.0816
20094SOL     OW61722   7.655   0.127  11.626  0.1647 -0.9841  0.2239
20094SOL    HW161723   7.638   0.210  11.581 -1.1971 -1.6475 -0.5530
20094SOL    HW261724   7.750   0.123  11.633  0.2330  1.1600  1.3052
20095SOL     OW61725   1.749   0.898   2.949 -0.1427 -0.4638  0.5398
20095SOL    HW161726   1.735   0.837   2.876 -2.1190 -0.9345  1.2421
20095SOL    HW261727   1.710   0.980   2.918  0.9805 -0.0228  0.2540
20096SOL     OW61728   7.376   5.595   7.411 -0.0823 -0.1119  0.3917
20096SOL    HW161729   7.461   5.572   7.374  0.1931  1.9861 -0.4559
20096SOL    HW261730   7.397   5.630   7.498  0.0058  0.8633 -0.0095
20097SOL     OW61731   4.215   3.477   9.643 -0.5998  0.5966 -0.3356
20097SOL    HW161732   4.122   3.469   9.665 -0.6082  0.5508 -0.3869
20097SOL    HW261733   4.224   3.565   9.607 -0.6155  0.6163 -0.2909
20098SOL     OW61734   5.290   0.898   9.309  0.2272 -0.5525  0.5544
20098SOL    HW161735   5.212   0.896   9.364 -0.5245 -0.2512 -0.4835
20098SOL    HW261736   5.300   0.990   9.283  0.8579 -0.6084  0.5682
20099SOL     OW61737   2.343   3.933   9.583  0.6044  0.5348  0.4097
20099SOL    HW161738   2.417   3.889   9.541  2.5192  4.4892 -0.8777
20099SOL    HW261739   2.268   3.912   9.526  1.5996 -0.2725 -0.6575
20100SOL     OW61740   2.019   0.906   2.971  0.3041  0.2409  0.4744
20100SOL    HW161741   1.929   0.885   2.949  0.6862 -0.6906 -0.2950
20100SOL    HW261742   2.055   0.824   3.006  1.0378  0.3965  0.1097
20101SOL     OW61743   0.630   5.908   7.814  0.3131  0.0651  0.5686
20101SOL    HW161744   0.683   5.937   7.740 -1.1380  2.5439  0.3716
20101SOL    HW261745   0.679   5.935   7.892  1.0182 -0.9634  0.4940
20102SOL     OW61746   1.693   7.891  10.970  0.0174  0.5365  0.1696
20102SOL    HW161747   1.679   7.840  11.050 -0.8144  0.7318  0.1560
20102SOL    HW261748   1.786   7.912  10.971 -0.1647  1.3561  1.5757
20103SOL     OW61749   7.863   0.252   1.781 -0.0864 -0.0027 -0.2200
20103SOL    HW161750   7.890   0.228   1.869  0.7270  1.5001 -0.0406
20103SOL    HW261751   7.770   0.271   1.789  0.0380  0.3741  0.3632
20104SOL     OW61752   1.169   6.922   5.287  0.6364  0.1659  0.1110
20104SOL    HW161753   1.249   6.935   5.236  0.4985  0.7905  0.0458
20104SOL    HW261754   1.136   7.010   5.302  1.0468  0.0446  1.9189
20105SOL     OW61755   6.181   3.164   1.872 -0.3124 -0.2509 -0.0775
20105SOL    HW161756   6.212   3.145   1.783 -0.4672 -0.7240 -0.0337
20105SOL    HW261757   6.088   3.184   1.861 -0.6728 -1.7090  0.1407
20106SOL     OW61758   4.218   3.727   9.515 -0.4498 -0.3047 -0.1879
20106SOL    HW161759   4.280   3.768   9.454 -1.8163  1.3182 -0.5516
20106SOL    HW261760   4.142   3.707   9.462 -0.8996 -0.7047  0.5956
20107SOL     OW61761   4.554   5.948   9.264 -0.4286  0.3412  0.2890
20107SOL    HW161762   4.565   5.999   9.183 -0.9424  1.4709  0.9054
20107SOL    HW261763   4.471   5.978   9.300 -0.0374  0.1238  1.4235
20108SOL     OW61764   0.676   1.213   4.351 -0.8726 -0.4175  0.7257
20108SOL    HW161765   0.659   1.229   4.259  1.5468 -0.1673  0.2484
20108SOL    HW261766   0.591   1.186   4.387 -1.6114 -1.9005 -1.8448
20109SOL     OW61767   1.669   1.817   1.845  0.3921 -0.2045 -0.4433
20109SOL    HW161768   1.699   1.895   1.799  2.4048 -0.9487 -0.5226
20109SOL    HW261769   1.712   1.822   1.931  0.6974 -1.2672 -0.5131
20110SOL     OW61770   2.297   0.479   0.680 -0.0737  0.2472  0.1820
20110SOL    HW161771   2.388   0.462   0.654  0.1550  0.8457  0.5798
20110SOL    HW261772   2.284   0.422   0.756 -0.4210 -0.7391 -0.5960
20111SOL     OW61773   6.713   2.850  11.028 -0.5302 -0.0661 -0.2679
20111SOL    HW161774   6.800   2.859  11.067 -1.0892  2.4207  0.5591
20111SOL    HW261775   6.719   2.770  10.976  1.4613 -1.3586  1.7627
20112SOL     OW61776   0.940   3.324   4.567  0.8066  0.0367  0.1955
20112SOL    HW161777   0.926   3.317   4.472  1.9593  2.9959 -0.2951
20112SOL    HW261778   0.966   3.236   4.593 -0.9293 -1.2253 -1.9435
20113SOL     OW61779   6.146   3.187   6.034 -0.7524  0.8985 -0.1781
20113SOL    HW161780   6.207   3.241   6.084  0.2313 -0.6654  0.3690
20113SOL    HW261781   6.196   3.161   5.956 -0.4616 -0.8785  0.5609
20114SOL     OW61782   6.775   1.673   2.543 -0.2077 -0.0736  0.1796
20114SOL    HW161783   6.745   1.598   2.492 -1.5671 -0.0245  0.8371
20114SOL    HW261784   6.742   1.656   2.632  0.2441  0.8650  0.5410
20115SOL     OW61785   4.075   5.772   8.239  0.2668 -0.1642 -0.1095
20115SOL    HW161786   4.169   5.772   8.225  0.4036  0.7028  0.7035
20115SOL    HW261787   4.053   5.681   8.256  0.8119 -0.5114 -1.1769
20116SOL     OW61788   6.344   0.573   5.587  0.0691 -0.3127  0.1252
20116SOL    HW161789   6.364   0.549   5.497 -2.0923  1.0084 -0.7766
20116SOL    HW261790   6.283   0.506   5.617  0.3833 -0.4610  0.4387
20117SOL     OW61791   2.947   2.870  11.220 -0.6978 -0.1153 -0.5041
20117SOL    HW161792   2.889   2.891  11.147  1.1289  1.5746 -1.5504
20117SOL    HW261793   3.014   2.938  11.219  1.0290 -1.6672  0.9786
20118SOL     OW61794   2.285   0.973   4.265 -0.7174 -0.0155  0.2835
20118SOL    HW161795   2.361   1.002   4.316 -0.1243  0.6787 -0.9589
20118SOL    HW261796   2.319   0.904   4.207 -0.9510  0.5050 -0.4896
20119SOL     OW61797   6.269   6.043   9.574 -0.0849 -0.2039 -0.3452
20119SOL    HW161798   6.207   6.109   9.607 -0.6627 -1.0639  0.3257
20119SOL    HW261799   6.320   6.089   9.508 -0.6264  0.8616 -0.0409
20120SOL     OW61800   7.739   4.968   0.592  0.0023  0.8026 -0.1140
20120SOL    HW161801   7.733   4.903   0.522 -0.4239  0.4020  0.2821
20120SOL    HW261802   7.662   4.951   0.647  1.6077 -0.5629  1.8724
20121SOL     OW61803   6.155   5.269   6.953  0.3424 -0.2832  0.0321
20121SOL    HW161804   6.095   5.343   6.951  0.9787  0.2452 -0.0678
20121SOL    HW261805   6.232   5.303   6.999  1.1424 -0.4944 -1.1217
20122SOL     OW61806   3.096   2.072   4.619 -0.5503 -0.3204 -0.3135
20122SOL    HW161807   3.042   2.148   4.597 -0.9716 -0.4087  0.3957
20122SOL    HW261808   3.180   2.109   4.648 -0.0678 -0.1976 -1.8107
20123SOL     OW61809   6.390   2.635   2.699 -0.2376 -0.1223  0.0575
20123SOL    HW161810   6.459   2.607   2.758 -1.5674 -0.3431  1.5685
20123SOL    HW261811   6.382   2.729   2.712  0.5388  0.1092 -0.9900
20124SOL     OW61812   7.348   2.620   1.496  0.0284  0.1827  0.6646
20124SOL    HW161813   7.354   2.716   1.492 -1.0045  0.2806  1.1558
20124SOL    HW261814   7.420   2.595   1.554 -1.2843  0.9105  2.7104
20125SOL     OW61815   5.159   2.144   7.256  0.0541  1.0216 -0.3100
20125SOL    HW161816   5.100   2.179   7.189 -1.2953 -1.2780 -0.4173
20125SOL    HW261817   5.123   2.177   7.338 -1.1259  0.0477 -0.4109
20126SOL     OW61818   7.476   2.366   1.364  0.4078  0.7383  0.4354
20126SOL    HW161819   7.506   2.297   1.422  1.6864  2.0035  1.3588
20126SOL    HW261820   7.469   2.444   1.420 -1.1159  1.3464 -0.5341
20127SOL     OW61821   3.797   3.876   0.452  0.4406 -0.0292  0.5082
20127SOL    HW161822   3.796   3.802   0.392  0.7263 -0.2940  0.8238
20127SOL    HW261823   3.854   3.848   0.524 -0.0528  0.2079  0.9978
20128SOL     OW61824   4.779   2.592  11.198 -0.5184  0.3513 -0.1655
20128SOL    HW161825   4.819   2.636  11.123  1.0170  1.5117  1.2737
20128SOL    HW261826   4.842   2.603  11.269 -1.8122 -0.9292  1.2518
20129SOL     OW61827   6.986   6.586   8.898  0.1837  0.2856  0.0922
20129SOL    HW161828   6.927   6.512   8.885 -0.5652  0.6822  1.1361
20129SOL    HW261829   7.013   6.580   8.990  1.1923  0.5307 -0.1753
20130SOL     OW61830   4.808   1.379   3.770  0.8358  0.4886  0.5492
20130SOL    HW161831   4.836   1.394   3.861  0.1283  0.1127  0.8352
20130SOL    HW261832   4.715   1.358   3.777  1.3219 -2.1850  0.0024
20131SOL     OW61833   2.576   0.781   3.518  0.5824 -0.4139 -0.1524
20131SOL    HW161834   2.557   0.827   3.600 -1.0492 -0.4995 -0.4462
20131SOL    HW261835   2.584   0.852   3.453  0.8599 -0.3978 -0.0999
20132SOL     OW61836   7.621   3.824  10.237 -0.2669 -0.4748  0.4863
20132SOL    HW161837   7.702   3.773  10.247 -0.9327 -1.8700 -0.7938
20132SOL    HW261838   7.629   3.894  10.301  3.0855  0.9026 -1.1619
20133SOL     OW61839   0.198   1.160   7.758  0.1267  0.1574 -0.1215
20133SOL    HW161840   0.203   1.086   7.818 -0.0597  0.9105  0.8368
20133SOL    HW261841   0.118   1.205   7.782  0.6984  1.1792 -0.0909
20134SOL     OW61842   0.392   5.323   0.049  0.3005  0.0927  0.2950
20134SOL    HW161843   0.312   5.314  -0.003  1.1719 -1.5077 -0.8541
20134SOL    HW261844   0.402   5.239   0.093  1.2715  0.3252  0.5514
20135SOL     OW61845   2.107   6.467  11.043  0.3570  0.3202 -0.1386
20135SOL    HW161846   2.052   6.424  11.108 -1.1547  3.3877  0.8094
20135SOL    HW261847   2.050   6.483  10.968  1.2290 -0.4068 -0.9829
20136SOL     OW61848   5.489   4.109   1.199  0.0020 -0.3306  0.0807
20136SOL    HW161849   5.540   4.052   1.255  0.2801 -0.8260 -0.6636
20136SOL    HW261850   5.464   4.182   1.256  1.4752 -0.1038  0.4883
20137SOL     OW61851   7.639   0.448  12.113 -0.3016  0.2448 -0.0732
20137SOL    HW161852   7.603   0.377  12.166  0.5245 -0.5631 -0.5491
20137SOL    HW261853   7.572   0.516  12.115 -1.5129 -0.8858 -0.3112
20138SOL     OW61854   6.775   3.869  11.445 -0.7278 -1.1863 -0.5762
20138SOL    HW161855   6.719   3.886  11.520 -0.5387 -0.5129 -0.5808
20138SOL    HW261856   6.799   3.956  11.413 -0.6007 -1.4673 -1.2606
20139SOL     OW61857   2.986   0.470   1.275 -0.0486  0.6241 -0.3444
20139SOL    HW161858   3.022   0.552   1.310  0.1849  0.1976  0.4231
20139SOL    HW261859   3.063   0.420   1.250 -0.0190 -0.5539  1.8779
20140SOL     OW61860   2.078   6.356   4.101 -0.6547  0.0003 -0.0978
20140SOL    HW161861   2.021   6.356   4.178  0.2138  2.2280  0.6333
20140SOL    HW261862   2.019   6.343   4.027 -1.7616 -0.3235  0.8122
20141SOL     OW61863   6.616   2.809   9.161 -0.4273  0.2090 -0.6824
20141SOL    HW161864   6.572   2.797   9.245 -0.9220  1.0275 -0.8089
20141SOL    HW261865   6.708   2.788   9.178 -0.9681 -2.4415 -0.6281
20142SOL     OW61866   7.568   5.055  11.374  0.1396  0.2048 -0.5770
20142SOL    HW161867   7.593   5.021  11.460 -0.3599 -1.9585 -1.2179
20142SOL    HW261868   7.520   4.983  11.333 -1.4937  1.9455 -1.8670
20143SOL     OW61869   2.285   4.787   8.028 -0.7831  0.1923  0.1488
20143SOL    HW161870   2.282   4.703   8.075 -0.4336  0.3977  0.5479
20143SOL    HW261871   2.379   4.807   8.022 -0.8360  0.2260 -0.5362
20144SOL     OW61872   6.766   4.435  10.921 -0.5796 -0.2792  0.2952
20144SOL    HW161873   6.709   4.481  10.982 -1.4546 -0.6729 -0.2056
20144SOL    HW261874   6.839   4.404  10.975  0.8300  2.8886  0.4094
20145SOL     OW61875   3.896   0.437  10.107 -0.2480  0.0663  0.1635
20145SOL    HW161876   3.893   0.399  10.195  1.2063  0.9808  0.6503
20145SOL    HW261877   3.930   0.367  10.052  1.3287  0.2569  0.8438
20146SOL     OW61878   7.111   6.780   4.540  0.1672 -0.0207  0.2293
20146SOL    HW161879   7.121   6.792   4.446  1.4940 -1.7343  0.0906
20146SOL    HW261880   7.027   6.736   4.551 -0.1064  0.4121 -0.1138
20147SOL     OW61881   2.337   3.986   6.382 -0.0014 -0.0876  0.4190
20147SOL    HW161882   2.325   4.009   6.474 -1.1587  1.5027 -0.0817
20147SOL    HW261883   2.335   4.070   6.336  0.5242 -0.8569 -1.0715
20148SOL     OW61884   3.345   3.444   4.709  0.4060 -0.0878  0.2058
20148SOL    HW161885   3.381   3.359   4.683 -0.2094 -0.7401  1.3979
20148SOL    HW261886   3.414   3.483   4.763  1.0320  0.5662 -1.0229
20149SOL     OW61887   4.190   6.936   1.182  0.3012 -0.2820 -0.7834
20149SOL    HW161888   4.099   6.907   1.193  0.9522 -2.4353 -0.7201
20149SOL    HW261889   4.240   6.880   1.241  1.8428 -0.1653 -1.9367
20150SOL     OW61890   0.494   5.131   3.770  0.0255  0.3062  0.4465
20150SOL    HW161891   0.563   5.064   3.768  0.0221  0.2999  0.5248
20150SOL    HW261892   0.529   5.203   3.718  0.0123  0.2273  0.3267
20151SOL     OW61893   2.810   6.666   4.366 -0.1820  0.0617  0.3665
20151SOL    HW161894   2.869   6.672   4.441 -0.0269 -0.7868  0.3186
20151SOL    HW261895   2.760   6.586   4.381  0.2048 -0.3996 -0.6911
20152SOL     OW61896   0.719   1.513   2.094  0.4902  0.5579  0.7785
20152SOL    HW161897   0.789   1.500   2.031 -0.5476  1.2988 -0.5764
20152SOL    HW261898   0.642   1.472   2.054 -0.3403  1.6265  1.2261
20153SOL     OW61899   1.583   7.739   3.601  0.7532 -0.4616  0.1622
20153SOL    HW161900   1.498   7.705   3.629  1.1899 -0.8139  1.0869
20153SOL    HW261901   1.607   7.802   3.670  1.8220 -1.3074  0.5799
20154SOL     OW61902   1.011   0.762   6.135  0.4383 -0.3551 -0.2254
20154SOL    HW161903   1.067   0.806   6.071  0.9046 -1.1478 -0.3775
20154SOL    HW261904   1.028   0.806   6.217 -0.9130  1.3509 -0.8092
20155SOL     OW61905   7.776   5.241   9.508  0.0820  0.0869 -0.2899
20155SOL    HW161906   7.815   5.322   9.476 -1.8626  2.4129  2.6955
20155SOL    HW261907   7.684   5.246   9.483 -0.3398 -0.5506  1.0106
20156SOL     OW61908   6.291   1.786   7.291 -0.5166 -0.3001  0.2729
20156SOL    HW161909   6.367   1.809   7.238 -2.0621  0.0268 -1.9784
20156SOL    HW261910   6.298   1.841   7.369  1.5902 -0.4007  0.2162
20157SOL     OW61911   6.131   3.439   3.250 -0.4984  0.3649  0.0485
20157SOL    HW161912   6.205   3.478   3.203 -0.3089 -0.2280 -0.1563
20157SOL    HW261913   6.160   3.435   3.341 -0.8027  1.3646  0.2051
20158SOL     OW61914   3.312   0.627  10.006 -0.0491  0.7721  0.2740
20158SOL    HW161915   3.315   0.597  10.097  0.7968  1.7884  0.5921
20158SOL    HW261916   3.357   0.558   9.957 -3.0050 -1.2476  0.1591
20159SOL     OW61917   6.108   1.905   6.776  0.5508 -0.0411  0.1963
20159SOL    HW161918   6.194   1.878   6.809  0.7829 -0.0386 -0.3966
20159SOL    HW261919   6.115   2.000   6.768  0.9221 -0.1562 -1.0234
20160SOL     OW61920   1.966   2.235  12.066  0.0263 -0.1221 -0.2521
20160SOL    HW161921   1.914   2.266  12.140 -0.0529 -0.1217 -0.3087
20160SOL    HW261922   1.910   2.171  12.022  0.2266 -0.4196 -0.0773
20161SOL     OW61923   1.972   4.164   9.527 -0.1660 -0.6470  0.2330
20161SOL    HW161924   2.010   4.247   9.555 -2.6102  0.0875  1.7404
20161SOL    HW261925   1.880   4.170   9.555 -0.6215 -3.5237 -0.3768
20162SOL     OW61926   7.638   7.504   2.518  0.2002 -0.0629  0.1152
20162SOL    HW161927   7.618   7.594   2.545 -0.4712 -0.6898  1.8658
20162SOL    HW261928   7.733   7.497   2.525  0.1692  0.2349  1.0290
20163SOL     OW61929   6.547   5.363  11.083 -0.2353  0.1696 -0.1142
20163SOL    HW161930   6.457   5.367  11.115 -0.7991  1.0912 -1.7174
20163SOL    HW261931   6.542   5.396  10.993  1.7123  0.2655 -0.2250
20164SOL     OW61932   4.972   4.271  10.983  0.1826 -0.0248 -0.3128
20164SOL    HW161933   4.974   4.181  11.016  3.1838  0.1355  0.2162
20164SOL    HW261934   5.048   4.277  10.925  0.6527  2.4208  0.4310
20165SOL     OW61935   1.246   3.992   7.864  0.0494  0.3459 -0.7213
20165SOL    HW161936   1.257   4.073   7.814  0.2651 -0.1783 -1.5468
20165SOL    HW261937   1.325   3.941   7.846 -0.3447 -0.2956 -0.6899
20166SOL     OW61938   6.944   2.929   9.504 -0.0529 -0.7035  0.0930
20166SOL    HW161939   6.954   2.963   9.415  4.2347  0.9514  0.9438
20166SOL    HW261940   6.941   3.007   9.559  0.9092 -1.6766  1.5857
20167SOL     OW61941   0.255   3.484  10.125 -0.2310 -0.4414  0.4818
20167SOL    HW161942   0.308   3.412  10.090 -0.4435 -1.7066  2.5551
20167SOL    HW261943   0.238   3.541  10.050  2.7421 -0.7891 -0.5848
20168SOL     OW61944   6.872   3.529   4.522  0.1714 -0.3134 -0.3790
20168SOL    HW161945   6.905   3.616   4.502 -2.6712  0.9691  0.0751
20168SOL    HW261946   6.934   3.494   4.587  2.0604  0.7919 -1.5023
20169SOL     OW61947   4.302   5.089   6.795 -0.1905  0.4991  0.0968
20169SOL    HW161948   4.392   5.056   6.792 -0.4542 -0.3670  1.0577
20169SOL    HW261949   4.261   5.052   6.716  0.1901  0.5745 -0.1396
20170SOL     OW61950   4.170   3.005   5.382  0.1055  0.2397 -0.2562
20170SOL    HW161951   4.104   2.998   5.312 -0.1419 -0.0507  0.0065
20170SOL    HW261952   4.160   3.094   5.414 -0.7480 -0.0641  0.3561
20171SOL     OW61953   7.604   2.824  10.797 -0.0295  0.1312 -0.3333
20171SOL    HW161954   7.527   2.881  10.800 -0.5093 -0.5340  1.7958
20171SOL    HW261955   7.677   2.879  10.826  0.0570  0.4008 -1.0459
20172SOL     OW61956   7.679   7.842   5.931  0.0472  0.2169  0.3240
20172SOL    HW161957   7.610   7.815   5.992 -0.1974  0.8093  0.3227
20172SOL    HW261958   7.664   7.789   5.853  1.6594 -2.1066  1.4856
20173SOL     OW61959   5.117   4.478   5.137 -0.0272  0.3759 -0.4508
20173SOL    HW161960   5.153   4.396   5.103  2.1571  1.6287 -1.3549
20173SOL    HW261961   5.127   4.540   5.064  0.2649  1.9360  0.8739
20174SOL     OW61962   5.521   0.615   9.719  0.4313  0.1946  0.2983
20174SOL    HW161963   5.493   0.583   9.805  0.8160  1.6279  0.9750
20174SOL    HW261964   5.615   0.597   9.716  0.2945 -0.5008 -0.1327
20175SOL     OW61965   6.413   2.971   8.360 -0.9134 -0.2310  0.2039
20175SOL    HW161966   6.499   2.967   8.402 -0.8736  0.6506  0.2285
20175SOL    HW261967   6.358   3.017   8.423 -1.1202  0.1809 -0.2737
20176SOL     OW61968   0.511   1.445   0.022 -0.7211 -0.1164  0.1478
20176SOL    HW161969   0.447   1.454  -0.049  0.5670  0.7183 -0.9799
20176SOL    HW261970   0.555   1.531   0.025 -0.2857 -0.3727  1.4985
20177SOL     OW61971   2.325   7.384   1.807  0.1278 -0.1022 -0.0543
20177SOL    HW161972   2.271   7.361   1.883 -1.3049  1.6134 -0.4903
20177SOL    HW261973   2.340   7.478   1.815 -2.1281  0.6863 -3.0453
20178SOL     OW61974   5.584   1.306   2.449 -0.3849 -0.2288  0.1213
20178SOL    HW161975   5.640   1.383   2.455  0.9503 -1.1195 -0.2052
20178SOL    HW261976   5.645   1.235   2.426 -1.2551 -1.7026  2.0905
20179SOL     OW61977   2.719   6.289  10.821 -0.2408 -0.1054 -0.4877
20179SOL    HW161978   2.634   6.306  10.862  0.2967  0.4279  0.4310
20179SOL    HW261979   2.731   6.194  10.830 -0.9356 -0.2615 -1.0494
20180SOL     OW61980   4.203   7.085   0.474  0.0632 -0.1640 -0.6475
20180SOL    HW161981   4.246   7.030   0.409  0.2524 -1.3091  0.4098
20180SOL    HW261982   4.166   7.157   0.424  1.1387 -0.4349 -1.8786
20181SOL     OW61983   5.797   1.778  11.624  0.2717  0.2920 -0.0447
20181SOL    HW161984   5.724   1.821  11.580  0.4512  1.8822  1.1144
20181SOL    HW261985   5.758   1.700  11.664 -0.6842  0.8277  0.1042
20182SOL     OW61986   6.098   4.831  12.314 -0.3105 -0.1155 -0.3232
20182SOL    HW161987   6.159   4.779  12.367  0.6080  0.5316 -0.7145
20182SOL    HW261988   6.146   4.912  12.295 -1.8665  1.0887  0.6441
20183SOL     OW61989   7.818   0.119   3.353  0.4137  0.4899  0.2102
20183SOL    HW161990   7.821   0.032   3.313 -2.4813  0.6699 -0.6094
20183SOL    HW261991   7.756   0.109   3.426 -0.3076  1.9308 -0.1748
20184SOL     OW61992   0.261   7.576   9.152 -0.0978  0.1932 -0.2054
20184SOL    HW161993   0.263   7.561   9.058 -0.4550  3.4369 -0.8451
20184SOL    HW261994   0.168   7.574   9.175 -0.0162 -0.5109  0.1174
20185SOL     OW61995   6.060   6.182   9.950 -0.7072 -0.4235  0.3029
20185SOL    HW161996   6.004   6.122   9.901 -0.8949 -0.7897  0.9486
20185SOL    HW261997   6.148   6.148   9.939 -0.8421 -0.9821  0.8830
20186SOL     OW61998   4.583   6.402   6.388 -0.1730 -0.4314  0.4979
20186SOL    HW161999   4.669   6.426   6.424  1.0042  2.7080 -3.6666
20186SOL    HW262000   4.603   6.342   6.316 -1.6894 -1.1043  0.6091
20187SOL     OW62001   1.125   2.846   3.583  0.2880  0.1938  0.5829
20187SOL    HW162002   1.201   2.875   3.633  0.1273 -1.6776  2.0150
20187SOL    HW262003   1.152   2.763   3.544  0.1838  1.2563 -2.0218
20188SOL     OW62004   6.065   3.380  10.735 -0.0739 -0.4503 -0.3565
20188SOL    HW162005   6.156   3.363  10.712  0.7710  2.2790  0.6017
20188SOL    HW262006   6.028   3.423  10.658 -0.7619 -2.0466 -0.9521
20189SOL     OW62007   5.116   4.968   6.486 -0.5488  0.4265  0.2769
20189SOL    HW162008   5.090   5.007   6.570  0.9071 -0.8395  1.3836
20189SOL    HW262009   5.051   4.899   6.472  0.0295 -0.3242  1.1506
20190SOL     OW62010   5.554   6.388   0.159 -0.1701 -0.9095 -0.1181
20190SOL    HW162011   5.527   6.375   0.250 -0.9756  0.2102 -0.1766
20190SOL    HW262012   5.550   6.301   0.120  0.1212 -1.3983  0.8839
20191SOL     OW62013   4.988   5.449  11.705 -0.8847  0.0789 -0.0961
20191SOL    HW162014   4.959   5.475  11.617  0.7166 -2.4463 -1.4795
20191SOL    HW262015   5.010   5.531  11.748 -1.6001  1.3869 -2.0749
20192SOL     OW62016   2.269   7.757   7.865 -0.2513 -0.1432  0.1143
20192SOL    HW162017   2.213   7.808   7.806 -0.4703  0.8478  1.1561
20192SOL    HW262018   2.264   7.803   7.948 -0.9086 -2.1663  1.2616
20193SOL     OW62019   3.341   4.697  11.053  0.3103 -0.1107 -0.6605
20193SOL    HW162020   3.306   4.760  11.116  1.9705 -0.0875  0.2944
20193SOL    HW262021   3.311   4.612  11.085  2.1870 -0.2211  0.9574
20194SOL     OW62022   4.750   1.329   9.310  0.1219 -0.2226  0.1940
20194SOL    HW162023   4.658   1.354   9.312  0.2902  0.7926 -1.9250
20194SOL    HW262024   4.793   1.388   9.373 -0.5316 -0.0011  0.4329
20195SOL     OW62025   4.287   0.197  11.592 -0.3592  0.3072  0.3747
20195SOL    HW162026   4.364   0.223  11.642 -0.0830 -0.8593  0.5975
20195SOL    HW262027   4.214   0.241  11.635  0.1120  1.0002  0.4902
20196SOL     OW62028   6.233   6.710  12.431 -0.1585 -0.0544 -0.1040
20196SOL    HW162029   6.212   6.797  12.465  1.5565  0.0807  0.7000
20196SOL    HW262030   6.319   6.721  12.390  0.0942 -1.3751  0.0396
20197SOL     OW62031   1.656   7.558   8.725  0.1204  0.3416 -0.0344
20197SOL    HW162032   1.746   7.544   8.696  0.5740  0.7301  1.1354
20197SOL    HW262033   1.661   7.634   8.783 -1.5545  2.7732 -2.7883
20198SOL     OW62034   7.909   5.600   1.971  0.7258 -0.2443  0.3081
20198SOL    HW162035   7.816   5.621   1.979  0.4742 -1.0715 -0.2557
20198SOL    HW262036   7.950   5.682   1.942 -0.2534 -0.4813 -2.0108
20199SOL     OW62037   0.829   4.338   7.652 -0.0544  0.4311  0.1692
20199SOL    HW162038   0.770   4.381   7.589 -0.5388 -0.2096  0.1726
20199SOL    HW262039   0.915   4.375   7.632 -0.4299  1.3122  0.0936
20200SOL     OW62040   2.916   4.955   7.466  0.1572 -0.2367 -0.2181
20200SOL    HW162041   2.971   4.931   7.391 -0.5451  1.9144 -1.4875
20200SOL    HW262042   2.827   4.957   7.432 -0.1765  0.8140  0.6655
20201SOL     OW62043   1.562   1.064   0.365  0.0812  0.0649  0.3131
20201SOL    HW162044   1.528   1.134   0.310  0.4212  0.1503  0.2100
20201SOL    HW262045   1.654   1.087   0.380  0.1968 -0.3568  0.2777
20202SOL     OW62046   2.517   5.123   8.578 -0.6044 -0.4006 -0.1277
20202SOL    HW162047   2.532   5.074   8.658  0.0084  0.6051  0.3891
20202SOL    HW262048   2.586   5.093   8.518 -1.6683 -1.8893 -0.6564
20203SOL     OW62049   4.268   5.434   0.051 -0.3126  0.0311 -0.0311
20203SOL    HW162050   4.292   5.475  -0.032  1.8081 -0.1397  0.4369
20203SOL    HW262051   4.302   5.494   0.118  0.6915 -1.2780  0.6695
20204SOL     OW62052   7.139   4.792   0.423  0.3894 -0.8294  0.6426
20204SOL    HW162053   7.116   4.804   0.515 -2.3327 -0.5641  0.0294
20204SOL    HW262054   7.174   4.876   0.395 -0.6504 -0.2628  0.9889
20205SOL     OW62055   7.784   7.171  10.994  0.7723  0.2671  0.0977
20205SOL    HW162056   7.806   7.226  11.069 -0.6211  0.1433  0.6251
20205SOL    HW262057   7.707   7.212  10.955  0.8931 -0.2162 -0.6827
20206SOL     OW62058   4.587   5.956  10.211 -0.2041  0.0313  0.4623
20206SOL    HW162059   4.533   6.034  10.225  0.0667 -0.0076  1.9422
20206SOL    HW262060   4.677   5.988  10.219 -0.0397 -0.1762 -0.4476
20207SOL     OW62061   2.776   7.491   1.578  0.0826 -0.3477 -0.6360
20207SOL    HW162062   2.868   7.514   1.564  0.6374 -2.0336 -0.0030
20207SOL    HW262063   2.764   7.409   1.530 -0.4433 -1.3738  1.1506
20208SOL     OW62064   6.703   6.349   0.440 -0.0921 -0.5372 -0.7405
20208SOL    HW162065   6.679   6.257   0.445 -0.4224 -0.4564 -0.8192
20208SOL    HW262066   6.739   6.369   0.527 -0.2558 -0.6731 -0.6403
20209SOL     OW62067   6.722   5.089   4.893 -0.6420  0.0850  0.3724
20209SOL    HW162068   6.647   5.029   4.892 -1.7638  1.3727  1.8871
20209SOL    HW262069   6.687   5.170   4.932  0.8357  1.7083 -1.4792
20210SOL     OW62070   4.218   4.772   6.888 -0.5479 -0.0434 -0.6449
20210SOL    HW162071   4.151   4.839   6.880  0.1492  1.5065  3.7800
20210SOL    HW262072   4.301   4.819   6.880 -0.0080 -0.9208 -0.3667
20211SOL     OW62073   1.946   7.683  11.317 -0.4741  0.0581  0.1682
20211SOL    HW162074   1.952   7.654  11.226 -1.6101  1.6899 -0.4932
20211SOL    HW262075   2.034   7.669  11.353  0.2153  0.0763 -1.4184
20212SOL     OW62076   4.819   1.490   5.924  0.0504 -0.2785  0.3902
20212SOL    HW162077   4.839   1.469   5.833  0.2675  0.2812  0.3004
20212SOL    HW262078   4.824   1.406   5.970  0.8736 -0.4304  0.0510
20213SOL     OW62079   3.286   2.578   3.199 -0.1981 -0.7266 -0.1557
20213SOL    HW162080   3.256   2.530   3.122 -0.0790 -0.2317 -0.5204
20213SOL    HW262081   3.381   2.584   3.187 -0.2670  0.0364 -0.3782
20214SOL     OW62082   2.268   5.657   8.341 -0.1832 -0.4798  0.1342
20214SOL    HW162083   2.295   5.622   8.255  0.5817 -1.1200  0.6210
20214SOL    HW262084   2.185   5.613   8.358  1.7747 -4.0075  1.7483
20215SOL     OW62085   0.739   7.645   3.035  0.0951 -0.0070  0.7345
20215SOL    HW162086   0.803   7.715   3.020 -0.6701  0.4432 -0.6238
20215SOL    HW262087   0.681   7.679   3.102  0.9870 -0.2353  1.6534
20216SOL     OW62088   2.023   3.742   8.059 -0.0019 -0.3801 -0.4941
20216SOL    HW162089   2.066   3.827   8.070 -1.6944  0.7067 -1.7537
20216SOL    HW262090   2.079   3.695   7.998  0.4159  0.2546 -0.6165
20217SOL     OW62091   6.777   5.494  10.083 -0.7712  0.3056  0.0241
20217SOL    HW162092   6.712   5.563  10.068 -2.3120 -1.3736 -1.6747
20217SOL    HW262093   6.724   5.417  10.106  0.9112 -0.2740  2.3273
20218SOL     OW62094   4.495   5.272   0.679  0.4934  0.5019  0.1890
20218SOL    HW162095   4.473   5.315   0.762  1.1013  1.1003  0.0504
20218SOL    HW262096   4.517   5.183   0.704 -2.0842 -0.1813  0.3309
20219SOL     OW62097   7.853   5.307   3.525  0.2263 -0.2953  0.4050
20219SOL    HW162098   7.768   5.351   3.521  0.4002 -0.0039 -0.1616
20219SOL    HW262099   7.862   5.283   3.617  0.7057  2.0157  1.0418
20220SOL     OW62100   3.895   5.863   7.213 -0.2632  0.6059 -0.2374
20220SOL    HW162101   3.935   5.918   7.280 -0.4770  0.9974 -0.4271
20220SOL    HW262102   3.946   5.879   7.134  0.8566 -0.8950  0.1433
20221SOL     OW62103   4.764   1.384   7.071  0.1141  0.2180 -0.2301
20221SOL    HW162104   4.826   1.430   7.127 -1.5172  1.2049  0.8523
20221SOL    HW262105   4.741   1.305   7.121 -1.0966  0.9384  0.4035
20222SOL     OW62106   3.104   1.556   6.008 -0.1319  0.3591  0.4180
20222SOL    HW162107   3.120   1.594   5.921 -0.2130  1.5884  0.9223
20222SOL    HW262108   3.124   1.463   5.997  0.9679  0.6894 -0.6346
20223SOL     OW62109   2.626   6.178   4.910 -0.4658 -0.4344  0.1562
20223SOL    HW162110   2.682   6.122   4.964 -1.0999 -1.0505  0.1915
20223SOL    HW262111   2.539   6.168   4.948 -0.5784  0.6657  0.2235
20224SOL     OW62112   7.706   5.523   6.997  0.3651  0.3129 -0.1462
20224SOL    HW162113   7.736   5.494   7.083  0.4353 -0.6819 -0.4994
20224SOL    HW262114   7.622   5.478   6.984 -0.5229  1.8014  0.1297
20225SOL     OW62115   1.280   5.379  11.105  0.2915  0.2680 -0.7990
20225SOL    HW162116   1.266   5.466  11.068  0.8256  1.0209  0.7127
20225SOL    HW262117   1.192   5.341  11.112 -0.1325  1.3709  0.1288
20226SOL     OW62118   1.205   5.975  11.646 -0.1882  0.1070 -0.6212
20226SOL    HW162119   1.247   5.902  11.600 -1.0854 -0.2360 -0.9078
20226SOL    HW262120   1.278   6.021  11.689  0.1767 -2.2205  1.4336
20227SOL     OW62121   4.554   7.791  10.813  0.1391  0.0755  0.1474
20227SOL    HW162122   4.487   7.816  10.876  0.5442  0.5577  0.3867
20227SOL    HW262123   4.633   7.835  10.842  0.4495 -0.0942 -0.4163
20228SOL     OW62124   7.907   6.357   4.476 -0.2940 -0.1346  0.2926
20228SOL    HW162125   7.852   6.351   4.398 -0.1738 -0.3014  0.2183
20228SOL    HW262126   7.888   6.443   4.513 -0.7399 -0.2634  0.3684
20229SOL     OW62127   0.986   2.489   8.427 -0.7460  0.1132 -0.2520
20229SOL    HW162128   1.044   2.541   8.371 -2.4166  2.4641  0.0841
20229SOL    HW262129   1.044   2.425   8.468  1.3981  1.5749 -0.8387
20230SOL     OW62130   5.044   7.840   2.166  0.4256 -0.5251 -0.4868
20230SOL    HW162131   4.972   7.900   2.183  0.2688 -0.5285 -1.1247
20230SOL    HW262132   5.052   7.789   2.247  0.2139 -0.0120 -0.1395
20231SOL     OW62133   1.365   4.618   7.126  0.3752  0.1261 -0.2746
20231SOL    HW162134   1.359   4.711   7.106 -1.1529 -0.1821 -1.4970
20231SOL    HW262135   1.329   4.610   7.214 -0.4272  0.5842 -0.5535
20232SOL     OW62136   5.310   6.270   0.320  0.1145  0.6956 -0.2691
20232SOL    HW162137   5.230   6.284   0.269  0.2985  1.0587 -0.4560
20232SOL    HW262138   5.336   6.180   0.298 -1.1115 -0.0372  1.0104
20233SOL     OW62139   2.640   3.217   6.322  0.2622 -0.6301 -0.0030
20233SOL    HW162140   2.708   3.191   6.384  0.4554 -0.2828 -0.0616
20233SOL    HW262141   2.666   3.176   6.239  0.0084 -1.0875  0.1416
20234SOL     OW62142   3.640   5.982   5.564  0.0944  0.5048  0.1776
20234SOL    HW162143   3.706   5.997   5.631  0.8438 -0.1541 -0.3861
20234SOL    HW262144   3.686   5.999   5.481 -0.7017  0.9199 -0.1925
20235SOL     OW62145   1.273   0.524   5.247  0.0829  0.1819  0.0027
20235SOL    HW162146   1.252   0.434   5.272 -0.3720  0.0489 -0.7866
20235SOL    HW262147   1.366   0.523   5.228 -0.0173 -0.2642 -0.5090
20236SOL     OW62148   7.639   6.202   4.349  0.8239  0.5267 -0.1466
20236SOL    HW162149   7.543   6.195   4.350  0.9113 -1.1437 -0.2494
20236SOL    HW262150   7.656   6.296   4.343 -0.8231  0.8170 -0.9817
20237SOL     OW62151   3.582   5.710   8.201  0.0997  0.0420  0.2278
20237SOL    HW162152   3.595   5.629   8.252 -1.9808 -1.4995 -1.4629
20237SOL    HW262153   3.601   5.780   8.263 -0.0801 -1.7231  2.4410
20238SOL     OW62154   5.192   3.263   4.831 -0.1416  0.0370  0.1131
20238SOL    HW162155   5.252   3.285   4.760  1.0274  0.4882  1.1859
20238SOL    HW262156   5.113   3.312   4.812 -0.1801 -0.5374 -1.3207
20239SOL     OW62157   7.959   4.566   6.205 -0.4809  0.3215 -0.1414
20239SOL    HW162158   7.885   4.545   6.262 -0.1234  0.9920  0.6058
20239SOL    HW262159   7.994   4.481   6.178 -2.5629 -0.0299 -1.9500
20240SOL     OW62160   6.058   5.942   2.363 -0.1373  0.0865 -0.0313
20240SOL    HW162161   6.097   5.869   2.313 -0.2009  0.2180 -0.2763
20240SOL    HW262162   6.102   6.020   2.329 -0.4686  0.2158 -0.1632
20241SOL     OW62163   4.089   3.003   3.931  0.4790 -0.1800 -0.3665
20241SOL    HW162164   4.160   2.963   3.981  0.1674 -0.0530  0.1858
20241SOL    HW262165   4.064   2.937   3.867  1.5845  0.0471 -1.0544
20242SOL     OW62166   5.384   0.709   6.571  0.1469  0.1115  0.4787
20242SOL    HW162167   5.451   0.776   6.586 -0.0642  0.6671 -0.8519
20242SOL    HW262168   5.434   0.630   6.552  0.4261  0.2922  0.4465
20243SOL     OW62169   0.594   4.868  11.788 -0.5240 -0.0781  0.0698
20243SOL    HW162170   0.520   4.819  11.754 -0.5693 -0.9854  1.3969
20243SOL    HW262171   0.557   4.952  11.815 -0.6631  0.2696 -1.1419
20244SOL     OW62172   2.439   2.806  11.796 -0.8810 -0.4367  0.2491
20244SOL    HW162173   2.364   2.858  11.766 -0.1610  0.7350  0.4179
20244SOL    HW262174   2.515   2.862  11.779  0.1654 -2.2716 -1.5334
20245SOL     OW62175   6.372   3.250   9.469 -0.0694  1.0173 -0.1666
20245SOL    HW162176   6.442   3.309   9.497  1.5182 -0.9660  0.2900
20245SOL    HW262177   6.372   3.257   9.373  2.0384 -0.2472 -0.3155
20246SOL     OW62178   7.504   6.010  11.164  0.3156  0.5410  0.0581
20246SOL    HW162179   7.516   6.103  11.182 -3.0821  1.8187 -3.0933
20246SOL    HW262180   7.568   5.991  11.095  0.3703  0.8381  0.0234
20247SOL     OW62181   1.718   2.081   6.546 -0.4655 -0.3119 -0.1424
20247SOL    HW162182   1.700   2.034   6.464 -1.5264 -0.9844  0.4530
20247SOL    HW262183   1.744   2.168   6.518  0.7983 -1.0099 -1.2546
20248SOL     OW62184   5.053   1.790   5.444  0.3136 -0.1596 -0.2695
20248SOL    HW162185   4.996   1.867   5.441  1.5886  0.8248 -0.2699
20248SOL    HW262186   5.115   1.810   5.515  1.5344 -0.5306 -1.1902
20249SOL     OW62187   2.157   5.296   0.371 -0.3488 -1.1158 -0.0680
20249SOL    HW162188   2.101   5.366   0.338 -0.9643 -0.6455  1.8500
20249SOL    HW262189   2.136   5.220   0.317 -0.0054  0.0264 -1.8777
20250SOL     OW62190   6.448   2.891  11.105  0.7221  0.1531  0.2834
20250SOL    HW162191   6.538   2.885  11.075  1.1197  0.6383  1.3604
20250SOL    HW262192   6.426   2.802  11.134  0.9029  0.0800  0.1967
20251SOL     OW62193   0.052   5.577   3.333  0.3165 -0.4208  0.0006
20251SOL    HW162194  -0.017   5.644   3.330 -2.2449 -2.8659 -0.0525
20251SOL    HW262195   0.102   5.591   3.252 -0.3425  1.1909 -0.1759
20252SOL     OW62196   7.761   7.276   7.798  0.2766 -0.4600 -0.2084
20252SOL    HW162197   7.808   7.213   7.744  0.6352  0.4288 -0.9571
20252SOL    HW262198   7.677   7.234   7.816  0.4777 -1.1188 -0.7651
20253SOL     OW62199   7.882   3.823   5.675  0.5690 -0.2744 -0.5394
20253SOL    HW162200   7.856   3.744   5.627 -1.2342 -0.8463  1.2116
20253SOL    HW262201   7.838   3.895   5.629 -1.5338 -0.8692  0.4091
20254SOL     OW62202   6.438   5.742   1.602 -0.0519 -0.1451  0.2072
20254SOL    HW162203   6.444   5.739   1.698 -0.2549  0.7143  0.2486
20254SOL    HW262204   6.440   5.650   1.576  1.7481 -0.3414  0.9243
20255SOL     OW62205   2.008   0.505   5.324  0.0426 -0.0053  0.2350
20255SOL    HW162206   2.067   0.518   5.250  0.1206 -0.8704  0.1351
20255SOL    HW262207   2.064   0.477   5.395 -0.1121  0.2581  0.4657
20256SOL     OW62208   5.358   4.952   8.387 -0.0847 -0.8299 -0.1161
20256SOL    HW162209   5.365   4.951   8.292 -0.9783 -1.6892 -0.1821
20256SOL    HW262210   5.297   5.024   8.406 -0.3963 -1.0604 -0.2353
20257SOL     OW62211   1.849   4.566   9.010  0.0133  0.5437 -0.1133
20257SOL    HW162212   1.943   4.553   8.997 -0.2525 -0.5869 -1.0678
20257SOL    HW262213   1.823   4.495   9.070 -0.4295  0.1035 -0.8091
20258SOL     OW62214   5.140   5.734   7.449  0.2767 -0.5698 -0.2724
20258SOL    HW162215   5.170   5.701   7.364  1.2326 -0.0711 -0.1499
20258SOL    HW262216   5.045   5.744   7.439  0.2844 -1.1565 -1.0527
20259SOL     OW62217   6.314   2.397   0.519 -0.5076  0.0435  0.2524
20259SOL    HW162218   6.326   2.347   0.438 -1.3231 -2.0177  1.3278
20259SOL    HW262219   6.377   2.468   0.513 -1.5010  0.8228 -2.8200
20260SOL     OW62220   7.203   6.846  11.034 -0.0119 -0.4342  0.0264
20260SOL    HW162221   7.255   6.924  11.054 -1.1564  0.2486  0.4758
20260SOL    HW262222   7.230   6.782  11.100  0.8288 -0.3684 -0.2479
20261SOL     OW62223   2.632   6.395   6.253  0.2009  0.5632  0.1004
20261SOL    HW162224   2.674   6.481   6.247  0.7029  0.4876  1.8421
20261SOL    HW262225   2.553   6.411   6.304 -0.1585  0.1237 -0.3136
20262SOL     OW62226   4.268   1.057   0.447 -0.0345  0.5394 -0.3710
20262SOL    HW162227   4.315   0.979   0.418 -0.1196  0.3830 -0.0872
20262SOL    HW262228   4.323   1.130   0.418 -0.3736  0.4027 -1.3774
20263SOL     OW62229   6.303   6.656   4.473  0.1023 -0.3592 -0.0809
20263SOL    HW162230   6.272   6.720   4.537 -1.9579 -1.9865  0.6729
20263SOL    HW262231   6.321   6.708   4.394 -1.1428  1.2130  0.6108
20264SOL     OW62232   4.241   5.880   0.523  0.0702 -0.1027  0.1352
20264SOL    HW162233   4.201   5.811   0.576 -1.0684  0.4085 -0.0175
20264SOL    HW262234   4.332   5.852   0.511 -0.3368 -1.5241  0.1565
20265SOL     OW62235   4.775   2.060   7.303  0.1437 -0.0351  0.4328
20265SOL    HW162236   4.856   2.011   7.289 -0.4397 -1.9272  3.0238
20265SOL    HW262237   4.706   2.001   7.275 -0.4394  0.7388  0.2128
20266SOL     OW62238   5.224   4.854   0.708  0.1177  0.1934 -0.1463
20266SOL    HW162239   5.224   4.920   0.638 -0.4529 -0.5154 -0.8312
20266SOL    HW262240   5.294   4.794   0.685  2.3572  1.8653  1.8064
20267SOL     OW62241   0.723   6.283   5.900 -0.0855 -0.2202  0.1466
20267SOL    HW162242   0.653   6.219   5.890 -1.9193  1.5660  0.8032
20267SOL    HW262243   0.708   6.347   5.830  1.2073 -0.0412  0.0023
20268SOL     OW62244   0.409   2.761   2.042 -0.1699  0.4659 -0.5976
20268SOL    HW162245   0.428   2.837   1.987 -1.2256  1.1818 -0.0027
20268SOL    HW262246   0.371   2.697   1.982  1.9712 -0.1766 -1.3849
20269SOL     OW62247   6.350   7.892   9.494 -0.6992 -0.1669  0.1753
20269SOL    HW162248   6.395   7.976   9.487 -1.0969 -0.0364 -0.9844
20269SOL    HW262249   6.420   7.827   9.499 -0.3914  0.2215  1.1142
20270SOL     OW62250   5.552   3.345   1.022 -0.3577  0.0397 -0.6012
20270SOL    HW162251   5.578   3.279   0.958 -1.1681  0.7365 -1.6841
20270SOL    HW262252   5.624   3.408   1.021  1.6695 -2.0035  2.3004
20271SOL     OW62253   3.487   1.453   8.711  0.0899  0.2105 -0.3264
20271SOL    HW162254   3.409   1.398   8.700  0.4469 -0.1042 -1.3745
20271SOL    HW262255   3.477   1.491   8.798 -0.4613 -1.0602  0.1947
20272SOL     OW62256   5.562   3.006   4.320 -0.1987  0.1169 -0.5504
20272SOL    HW162257   5.480   2.958   4.310  0.2782 -1.0707  0.8300
20272SOL    HW262258   5.627   2.951   4.277 -0.0437  0.8328 -1.2463
20273SOL     OW62259   7.470   0.579   9.482  0.2289 -0.0751 -0.7429
20273SOL    HW162260   7.563   0.556   9.489  0.6582  1.5762 -0.3731
20273SOL    HW262261   7.471   0.674   9.470 -1.4297  0.0073 -0.3942
20274SOL     OW62262   7.143   4.409   8.628 -0.1147 -0.3704 -0.4979
20274SOL    HW162263   7.238   4.416   8.619 -0.0681  0.1374  0.2439
20274SOL    HW262264   7.130   4.373   8.716 -0.5611 -2.8964 -1.5365
20275SOL     OW62265   4.943   1.908  10.772 -0.5897 -0.2821  0.3341
20275SOL    HW162266   4.854   1.872  10.775 -0.0321 -1.7611  0.2231
20275SOL    HW262267   4.940   1.976  10.705 -1.4467 -0.8862 -0.2581
20276SOL     OW62268   6.239   7.774   6.335 -0.1707  0.7467  0.4086
20276SOL    HW162269   6.221   7.713   6.407 -1.3412 -0.7897 -1.1241
20276SOL    HW262270   6.173   7.754   6.269  0.1609  2.8951 -0.6625
20277SOL     OW62271   4.454   2.460   7.496 -0.4817 -0.1029 -0.5278
20277SOL    HW162272   4.461   2.555   7.489  0.1208 -0.1801 -1.0700
20277SOL    HW262273   4.431   2.444   7.587  1.0189  0.4829 -0.0223
20278SOL     OW62274   7.909   3.085   3.963  0.3444 -0.6091 -0.0264
20278SOL    HW162275   7.921   3.051   4.052  0.7241  0.0854  0.1970
20278SOL    HW262276   7.834   3.143   3.969  0.8154  0.0084  0.0138
20279SOL     OW62277   1.198   7.799   2.559 -0.1204  0.6216 -0.6557
20279SOL    HW162278   1.188   7.748   2.478  2.2167 -2.0871  0.6037
20279SOL    HW262279   1.245   7.878   2.532 -0.6404  0.4692 -2.1187
20280SOL     OW62280   6.347   2.785   5.154 -0.2426  0.4100  0.1363
20280SOL    HW162281   6.409   2.734   5.207  0.4252 -0.1223 -1.1042
20280SOL    HW262282   6.314   2.722   5.090 -2.0736  0.6982  0.7453
20281SOL     OW62283   3.540   1.286  10.797  0.1017  0.0317  0.7436
20281SOL    HW162284   3.495   1.366  10.825  1.3495  1.2281 -0.5024
20281SOL    HW262285   3.587   1.257  10.875  0.1763  0.9184  1.0485
20282SOL     OW62286   2.227   2.811  10.068 -0.1427 -0.0100 -0.1923
20282SOL    HW162287   2.134   2.834  10.080  0.1615  0.8795  0.6322
20282SOL    HW262288   2.228   2.756   9.990 -1.4011 -0.2463 -0.0751
20283SOL     OW62289   1.758   3.721   0.534 -0.2632 -0.6847 -1.0127
20283SOL    HW162290   1.726   3.812   0.533  0.9524 -0.2356 -1.2029
20283SOL    HW262291   1.811   3.714   0.454  0.8899 -1.0916 -0.2401
20284SOL     OW62292   7.184   0.658   8.341  0.2801  0.6579 -0.0657
20284SOL    HW162293   7.185   0.650   8.245  0.7200 -0.6565  0.0337
20284SOL    HW262294   7.276   0.669   8.364  0.2365  0.3650  0.2468
20285SOL     OW62295   7.448   6.605   4.124  0.0723  0.3135 -0.0244
20285SOL    HW162296   7.367   6.628   4.079  0.0288 -0.1293 -0.1785
20285SOL    HW262297   7.496   6.688   4.130  0.0466  0.3984 -0.8153
20286SOL     OW62298   2.064   0.705  10.510 -0.2345 -0.2498  0.1779
20286SOL    HW162299   2.073   0.787  10.558 -0.8757  0.6654 -1.2239
20286SOL    HW262300   2.098   0.724  10.422 -2.0896 -0.9286 -0.7298
20287SOL     OW62301   1.600   3.416   6.834  0.0269 -0.6850 -0.4826
20287SOL    HW162302   1.658   3.468   6.889 -0.7963  0.5092 -0.7071
20287SOL    HW262303   1.641   3.418   6.747 -0.3919  0.2747 -0.6738
20288SOL     OW62304   6.033   4.236  11.661  0.5535  0.3999  0.5927
20288SOL    HW162305   6.090   4.305  11.628 -1.2218  1.1232 -1.2066
20288SOL    HW262306   5.948   4.253  11.619 -1.4462  0.2007  4.1393
20289SOL     OW62307   3.307   3.296   6.927 -0.0874  0.4265  0.3287
20289SOL    HW162308   3.356   3.374   6.900 -0.6819  0.4190 -0.8420
20289SOL    HW262309   3.216   3.326   6.933 -0.4116 -0.2963 -0.6981
20290SOL     OW62310   1.092   1.544   0.247 -0.1474 -0.0458 -0.1234
20290SOL    HW162311   1.155   1.615   0.234 -1.8027  1.7424  1.0213
20290SOL    HW262312   1.019   1.567   0.191 -1.1626 -0.2367  1.0826
20291SOL     OW62313   6.905   1.033   0.370  0.0596 -0.2059 -0.1010
20291SOL    HW162314   6.897   1.064   0.460  0.2916  2.1481 -0.8373
20291SOL    HW262315   6.815   1.036   0.336  0.3195  1.6285 -0.7385
20292SOL     OW62316   3.573   7.009   3.051  0.1807 -0.5588  0.0345
20292SOL    HW162317   3.541   6.959   2.976  1.0502 -0.7672 -0.2093
20292SOL    HW262318   3.602   7.092   3.014 -0.1908 -0.3242  0.2687
20293SOL     OW62319   6.338   0.530   9.969  0.1504 -0.2211 -0.3656
20293SOL    HW162320   6.284   0.515  10.046  0.2046  2.7686  0.3743
20293SOL    HW262321   6.276   0.526   9.896 -0.4099 -0.3938  0.1117
20294SOL     OW62322   1.770   5.233  10.316  0.3264 -0.1793 -0.3325
20294SOL    HW162323   1.797   5.199  10.402  2.1761  0.9813 -0.4040
20294SOL    HW262324   1.732   5.157  10.271 -0.9306 -0.7557  1.5634
20295SOL     OW62325   7.521   4.047   8.664 -0.0566 -0.5576  0.3089
20295SOL    HW162326   7.500   4.053   8.757  0.0433 -1.5142  0.4014
20295SOL    HW262327   7.451   4.097   8.621 -0.4283 -0.5992  0.8544
20296SOL     OW62328   3.574   0.499   5.124  0.1750  0.2137  0.2745
20296SOL    HW162329   3.650   0.482   5.179  0.1312 -0.6084  0.0918
20296SOL    HW262330   3.607   0.552   5.052  0.6873 -0.5575 -0.0717
20297SOL     OW62331   3.677   5.650   0.809 -0.0826 -0.0684 -0.1812
20297SOL    HW162332   3.748   5.698   0.851 -0.0017  0.6189 -1.0681
20297SOL    HW262333   3.689   5.667   0.715 -0.5772 -1.1123 -0.4444
20298SOL     OW62334   6.463   4.560   5.599  0.1249 -0.0738 -0.0200
20298SOL    HW162335   6.406   4.636   5.612 -2.1976 -2.0087  2.0849
20298SOL    HW262336   6.542   4.582   5.648 -1.2214  0.3386  2.1041
20299SOL     OW62337   0.121   1.952   9.425 -0.3157 -0.2993 -0.6084
20299SOL    HW162338   0.092   1.918   9.510 -3.8905 -0.2346 -1.6528
20299SOL    HW262339   0.162   2.035   9.446 -0.4300 -0.6252  1.1274
20300SOL     OW62340   5.742   1.120   2.355  0.4699 -0.2636  0.0166
20300SOL    HW162341   5.796   1.152   2.283  0.1465 -1.3551 -0.7396
20300SOL    HW262342   5.776   1.033   2.375 -0.2674 -0.4964  0.3119
20301SOL     OW62343   0.980   3.643  10.025 -0.3387  0.7785  0.1528
20301SOL    HW162344   1.012   3.564  10.068  0.7124  2.0387  1.8472
20301SOL    HW262345   1.006   3.633   9.934  1.6154  0.0670  0.7397
20302SOL     OW62346   2.620   6.614   0.783  0.5088  0.0444  0.5202
20302SOL    HW162347   2.715   6.621   0.774  0.7044 -1.7107  0.9550
20302SOL    HW262348   2.605   6.531   0.827 -1.2958 -0.3721 -0.7289
20303SOL     OW62349   7.129   0.121   7.198  0.2565  0.3634 -0.4985
20303SOL    HW162350   7.050   0.105   7.249  1.0144  1.7899  1.2275
20303SOL    HW262351   7.103   0.185   7.132  0.2681  2.0996  1.0951
20304SOL     OW62352   5.086   2.303   5.680 -0.1466 -0.1141 -0.5063
20304SOL    HW162353   5.071   2.226   5.735 -0.2325  0.1926 -0.1038
20304SOL    HW262354   5.178   2.325   5.693  0.1021 -0.6460 -1.2637
20305SOL     OW62355   5.057   5.617   4.709 -0.4218 -0.6808  0.2256
20305SOL    HW162356   4.976   5.632   4.758 -1.3584  0.1834 -1.4915
20305SOL    HW262357   5.109   5.696   4.723 -1.4723  0.3921 -1.5440
20306SOL     OW62358   6.822   1.441   5.860 -0.3889 -0.0083  0.4590
20306SOL    HW162359   6.744   1.420   5.809 -0.9997  0.5328  1.1676
20306SOL    HW262360   6.804   1.408   5.948  1.0457 -1.8147  0.1505
20307SOL     OW62361   2.291   0.267   7.357 -0.0607  0.0830 -0.6157
20307SOL    HW162362   2.338   0.201   7.408 -0.6094 -1.9474 -2.5901
20307SOL    HW262363   2.214   0.288   7.409  1.1099  0.6518  0.9377
20308SOL     OW62364   7.196   7.826  10.793 -0.2733 -0.0826  0.3036
20308SOL    HW162365   7.121   7.797  10.740 -0.2267 -0.3771  0.3957
20308SOL    HW262366   7.159   7.845  10.879  0.0533 -2.1707  0.9621
20309SOL     OW62367   1.602   3.632   7.874 -0.1652 -0.0615  0.1055
20309SOL    HW162368   1.525   3.578   7.855  0.6180 -1.8401  1.6809
20309SOL    HW262369   1.592   3.708   7.816 -1.8112 -1.4084 -1.5355
20310SOL     OW62370   7.918   4.738   8.224 -0.1697 -0.1326  0.2259
20310SOL    HW162371   7.826   4.713   8.238 -0.0351 -2.3151 -2.0801
20310SOL    HW262372   7.963   4.707   8.302 -0.9822 -1.8931  0.0457
20311SOL     OW62373   7.646   0.312   0.100  0.6322  0.0882  0.0323
20311SOL    HW162374   7.664   0.276   0.187  2.0425 -0.3481 -0.3992
20311SOL    HW262375   7.733   0.335   0.065  0.1758 -0.3727 -1.5116
20312SOL     OW62376   2.086   0.316   7.526 -0.1809 -0.7294  0.5786
20312SOL    HW162377   2.090   0.317   7.621  0.1772  0.5005  0.5757
20312SOL    HW262378   1.993   0.326   7.506 -0.2507 -0.9435  0.8013
20313SOL     OW62379   2.695   4.238   5.121 -0.0248  0.4189  0.3214
20313SOL    HW162380   2.728   4.199   5.040 -0.5551  0.1418  0.2350
20313SOL    HW262381   2.690   4.332   5.102 -1.3107  0.2362 -0.4052
20314SOL     OW62382   3.668   6.824   6.189 -0.7373 -0.1810  0.3720
20314SOL    HW162383   3.754   6.793   6.214 -0.0263  2.2277  1.2238
20314SOL    HW262384   3.624   6.843   6.272 -0.8887  1.5058 -0.0470
20315SOL     OW62385   2.753   6.585   2.970  0.0730  0.0886  0.5581
20315SOL    HW162386   2.703   6.597   2.889  0.1887 -0.7690  0.3558
20315SOL    HW262387   2.819   6.654   2.968 -1.4590  1.6358  1.1195
20316SOL     OW62388   7.022   4.285   2.609 -0.1743 -0.4455  0.3056
20316SOL    HW162389   7.081   4.290   2.534 -0.2528 -1.1391  0.1894
20316SOL    HW262390   6.990   4.375   2.620  0.9792 -0.0298  0.4422
20317SOL     OW62391   1.716   5.173   0.044 -0.0365 -0.1703  0.0797
20317SOL    HW162392   1.658   5.103   0.075  0.5488 -0.5330  0.3729
20317SOL    HW262393   1.775   5.190   0.118 -0.3795  0.8623  0.1256
20318SOL     OW62394   7.008   0.771   1.282  0.1643 -0.3546 -0.1617
20318SOL    HW162395   6.955   0.744   1.207  2.2537 -0.6271 -1.6229
20318SOL    HW262396   7.098   0.765   1.252  1.1534 -1.1296  2.6044
20319SOL     OW62397   3.032   2.845   7.391  0.4163 -0.2099  0.1894
20319SOL    HW162398   3.021   2.892   7.473  1.1609 -0.3891  0.4001
20319SOL    HW262399   3.093   2.774   7.412  0.7569 -0.1457 -0.5581
20320SOL     OW62400   7.181   3.963  10.704 -0.0371 -0.3084  0.0610
20320SOL    HW162401   7.209   3.935  10.791 -1.0049 -1.3037  0.0733
20320SOL    HW262402   7.216   3.896  10.645 -1.6492 -1.1458 -0.0031
20321SOL     OW62403   3.198   1.692   3.226 -0.0118  0.1692 -0.1497
20321SOL    HW162404   3.291   1.709   3.239 -0.1856  1.7403 -0.8363
20321SOL    HW262405   3.159   1.777   3.206 -1.7655 -0.2862  1.0107
20322SOL     OW62406   7.212   2.336   4.487  0.0244  0.1675  0.1982
20322SOL    HW162407   7.279   2.372   4.545  0.9768 -0.2887 -0.5990
20322SOL    HW262408   7.248   2.254   4.456 -0.2931  0.5719 -1.3390
20323SOL     OW62409   6.526   7.600   1.590 -0.8304 -0.0336  0.1095
20323SOL    HW162410   6.515   7.691   1.620  1.8398  0.8445 -1.2211
20323SOL    HW262411   6.474   7.595   1.510 -0.9015  0.3605  0.1260
20324SOL     OW62412   1.902   6.657   7.655 -0.0070  0.4502 -0.5907
20324SOL    HW162413   1.940   6.593   7.715  0.2313  1.9529  0.9242
20324SOL    HW262414   1.900   6.739   7.704 -1.4905  1.3489 -2.0206
20325SOL     OW62415   6.301   7.264   5.333 -0.5945 -0.0949  0.7949
20325SOL    HW162416   6.258   7.209   5.399 -0.5350 -0.6330  0.3966
20325SOL    HW262417   6.230   7.290   5.275 -0.5187 -0.3215  0.5956
20326SOL     OW62418   5.821   0.732   8.909  0.0935  0.8693  0.1337
20326SOL    HW162419   5.736   0.693   8.929  0.0140  0.6081 -0.6774
20326SOL    HW262420   5.849   0.772   8.991  0.7042 -1.8318  1.3467
20327SOL     OW62421   5.986   6.454   9.928 -0.0799  0.0349  0.3327
20327SOL    HW162422   5.915   6.466   9.991  0.3148  0.9033  0.6294
20327SOL    HW262423   6.017   6.365   9.944  0.7300  0.5951  2.1406
20328SOL     OW62424   7.949   2.569   6.425  0.0761 -0.3359  0.1389
20328SOL    HW162425   7.955   2.481   6.462  0.4763 -0.4429 -0.1784
20328SOL    HW262426   7.921   2.554   6.334  1.0830 -0.1977 -0.2049
20329SOL     OW62427   7.839   6.007   6.630  0.2352  0.0139 -0.3807
20329SOL    HW162428   7.891   6.087   6.619 -0.6440  0.6332 -0.0920
20329SOL    HW262429   7.750   6.033   6.607  0.2300 -1.3394 -2.0878
20330SOL     OW62430   1.220   2.532  10.839  0.0549 -0.0563  0.0805
20330SOL    HW162431   1.177   2.461  10.886  0.8367  0.7193  2.0456
20330SOL    HW262432   1.312   2.523  10.860  0.1427  1.6491  0.5622
20331SOL     OW62433   1.323   4.528   2.690  0.2261  0.8185  0.4193
20331SOL    HW162434   1.233   4.557   2.673 -0.0193 -0.8193 -1.3851
20331SOL    HW262435   1.374   4.609   2.686 -0.9422  1.5603 -0.3165
20332SOL     OW62436   2.757   2.088   0.353 -0.1107 -0.1264 -0.0755
20332SOL    HW162437   2.771   2.022   0.422 -0.9203 -0.9330 -0.6557
20332SOL    HW262438   2.830   2.149   0.363  0.9040 -1.3472  0.2143
20333SOL     OW62439   0.297   3.473   1.648 -0.7936  0.1996 -0.0480
20333SOL    HW162440   0.259   3.457   1.734  0.9991 -1.7960  0.4636
20333SOL    HW262441   0.233   3.438   1.586 -2.0459  1.5514  0.4190
20334SOL     OW62442   4.779   0.478   2.430 -0.1058 -0.9007 -0.0127
20334SOL    HW162443   4.817   0.566   2.431  0.6409 -1.2123 -0.4296
20334SOL    HW262444   4.700   0.486   2.485 -0.2800  0.1216 -0.3788
20335SOL     OW62445   7.731   3.961   5.890  0.7239 -0.3304 -0.3086
20335SOL    HW162446   7.760   3.895   5.826  2.6810 -0.2272  0.4075
20335SOL    HW262447   7.757   4.045   5.852  0.8702 -0.1832  0.1135
20336SOL     OW62448   7.776   1.335  11.600 -0.2320 -0.5593 -0.1103
20336SOL    HW162449   7.801   1.264  11.659 -1.1740 -0.7729  0.0423
20336SOL    HW262450   7.712   1.386  11.650 -0.4679 -0.3036 -0.6659
20337SOL     OW62451   4.334   2.955  11.536  0.0935 -0.2170  0.9084
20337SOL    HW162452   4.341   2.973  11.442 -0.7084 -1.9069  0.4813
20337SOL    HW262453   4.348   3.040  11.578  0.3467  0.5984 -0.7346
20338SOL     OW62454   4.734   0.936   2.554 -0.3370  0.0564 -0.0030
20338SOL    HW162455   4.679   0.875   2.604  1.7656 -0.7652  1.4390
20338SOL    HW262456   4.672   0.996   2.513 -2.4531 -2.4423 -0.6992
20339SOL     OW62457   3.448   4.455   2.143  0.5602  0.2878 -0.4006
20339SOL    HW162458   3.411   4.385   2.197 -0.4368  1.4081  0.4293
20339SOL    HW262459   3.372   4.494   2.099  1.2042  0.3073 -1.5264
20340SOL     OW62460   4.233   4.199   0.875  0.1427  0.3251  0.1290
20340SOL    HW162461   4.234   4.242   0.960  0.4823  2.1246 -0.7449
20340SOL    HW262462   4.159   4.138   0.880 -1.9061  2.7076  0.6502
20341SOL     OW62463   6.672   5.470   6.099 -0.1610  0.1824  0.6644
20341SOL    HW162464   6.618   5.450   6.022  1.8312 -0.2357 -0.7321
20341SOL    HW262465   6.617   5.525   6.154 -2.1250 -0.5540 -0.4486
20342SOL     OW62466   6.717   2.973   5.626  0.4220  0.5847  0.0194
20342SOL    HW162467   6.662   3.046   5.656  1.4926  1.5324 -0.2781
20342SOL    HW262468   6.805   2.994   5.656  0.2552 -2.5387  3.4569
20343SOL     OW62469   2.898   6.707   3.794 -0.5693 -0.6624 -0.4734
20343SOL    HW162470   2.871   6.769   3.861  0.5895 -2.8077  2.1880
20343SOL    HW262471   2.817   6.670   3.760 -1.1956 -1.4638  1.7671
20344SOL     OW62472   3.202   6.855   8.700  0.0305  0.3109 -0.2253
20344SOL    HW162473   3.295   6.868   8.680 -0.0293 -0.1809 -0.8685
20344SOL    HW262474   3.160   6.847   8.614 -0.4898 -0.2189  0.0722
20345SOL     OW62475   2.430   4.798   8.714 -0.5956 -0.3430  0.3774
20345SOL    HW162476   2.447   4.731   8.781 -0.2201 -0.6308 -0.0000
20345SOL    HW262477   2.505   4.793   8.655 -1.6671 -1.2647 -1.0105
20346SOL     OW62478   2.128   4.494  10.115  0.1629 -0.3848  0.3124
20346SOL    HW162479   2.220   4.489  10.089  0.3418 -0.8895  1.0033
20346SOL    HW262480   2.127   4.556  10.188  0.3214 -1.9567  1.7251
20347SOL     OW62481   1.866   3.908   3.096 -0.0587 -0.8529 -0.0835
20347SOL    HW162482   1.911   3.940   3.018  0.4005 -0.9762  0.1274
20347SOL    HW262483   1.930   3.920   3.167 -0.5283 -0.5886  0.2994
20348SOL     OW62484   6.871   7.320   8.147 -0.6587  0.3512 -0.4613
20348SOL    HW162485   6.895   7.400   8.100 -1.4563  1.5462  1.0753
20348SOL    HW262486   6.821   7.269   8.084 -1.4498  1.7635 -1.0154
20349SOL     OW62487   7.946   3.088  12.333 -0.0861 -0.1867 -0.2645
20349SOL    HW162488   7.881   3.159  12.338  0.0390 -0.1147  0.4209
20349SOL    HW262489   7.978   3.091  12.243 -1.5830 -0.7221 -0.8424
20350SOL     OW62490   2.621   4.153   5.691 -0.0761 -0.0041 -0.4211
20350SOL    HW162491   2.658   4.070   5.659 -0.5161 -0.5520  0.4396
20350SOL    HW262492   2.532   4.130   5.719  0.3225  0.3945  1.2851
20351SOL     OW62493   7.041   6.047   3.799 -0.0958  0.2038 -0.3564
20351SOL    HW162494   7.108   6.084   3.741  2.2654  0.0470  2.0493
20351SOL    HW262495   7.069   5.956   3.812 -1.1332 -0.0421  0.2166
20352SOL     OW62496   4.104   3.083  11.095 -0.1709 -0.0038 -0.4286
20352SOL    HW162497   4.164   3.061  11.166  1.2641  0.6290 -1.4136
20352SOL    HW262498   4.151   3.060  11.015 -0.8265  1.4711 -1.2805
20353SOL     OW62499   6.189   3.246   4.246  0.4122  0.4654  0.2583
20353SOL    HW162500   6.152   3.335   4.245  0.0945  0.3291 -0.2166
20353SOL    HW262501   6.135   3.197   4.184  1.2939  0.2230 -0.3254
20354SOL     OW62502   2.130   4.718  12.242 -0.0846  0.0267  0.0216
20354SOL    HW162503   2.180   4.717  12.161  0.9082 -1.0870  0.6169
20354SOL    HW262504   2.175   4.781  12.298 -0.5848  0.5575 -0.1540
20355SOL     OW62505   2.112   6.783   4.345 -0.3062  0.2253  0.7128
20355SOL    HW162506   2.111   6.861   4.401  0.6644  1.5766 -1.0474
20355SOL    HW262507   2.204   6.769   4.325 -0.5183 -1.0955  0.5934
20356SOL     OW62508   1.482   4.434  10.128  0.9138  0.5452 -0.0773
20356SOL    HW162509   1.442   4.393  10.204  0.7861  2.6344  1.0599
20356SOL    HW262510   1.524   4.362  10.080 -1.7191 -1.3116  0.1968
20357SOL     OW62511   5.095   0.975   7.362 -0.0242  0.0306  0.4858
20357SOL    HW162512   5.023   0.934   7.410  0.3820 -0.7686  0.4334
20357SOL    HW262513   5.111   0.916   7.288 -0.8784  1.4043 -0.8675
20358SOL     OW62514   0.334   3.520   2.836 -0.2448  0.7312  0.0536
20358SOL    HW162515   0.345   3.592   2.774 -0.6601  0.3833 -0.4320
20358SOL    HW262516   0.418   3.474   2.834 -0.0172  1.1302  0.2823
20359SOL     OW62517   4.942   1.724   2.980 -0.2650  0.0342 -0.2155
20359SOL    HW162518   4.917   1.668   3.054  0.8344 -0.3625 -0.1181
20359SOL    HW262519   5.030   1.694   2.957 -0.1013  0.9991 -0.8833
20360SOL     OW62520   3.883   6.868   9.346  0.1862  0.0023 -0.1051
20360SOL    HW162521   3.829   6.797   9.311  1.1627 -0.3570 -0.9642
20360SOL    HW262522   3.824   6.919   9.400 -0.4011 -1.8643  1.1186
20361SOL     OW62523   0.826   5.209   4.841  0.0521  0.1186  0.0598
20361SOL    HW162524   0.751   5.265   4.863  1.5770  1.8667  1.0634
20361SOL    HW262525   0.840   5.157   4.920  0.7926  0.8825  0.4480
20362SOL     OW62526   7.190   0.527   7.024  0.1996 -0.0316 -0.5730
20362SOL    HW162527   7.256   0.549   7.089 -0.1828 -1.7236  0.4591
20362SOL    HW262528   7.215   0.439   6.994 -3.0229 -1.9951  1.9079
20363SOL     OW62529   1.451   7.631   7.459  0.0744  0.0059  0.3950
20363SOL    HW162530   1.488   7.616   7.372  1.4513 -0.7015  1.0608
20363SOL    HW262531   1.416   7.720   7.455  1.7048  0.6613 -0.3580
20364SOL     OW62532   3.422   1.440  10.093  0.1277 -0.3928  0.2110
20364SOL    HW162533   3.513   1.444  10.121  0.0225  1.5621  0.4065
20364SOL    HW262534   3.371   1.453  10.173 -0.2386  1.4728 -0.2875
20365SOL     OW62535   1.093   7.222   3.306  0.2987 -0.0898  0.4264
20365SOL    HW162536   1.093   7.318   3.308  0.4581 -0.0998  1.5142
20365SOL    HW262537   1.184   7.198   3.325  0.6353 -0.4662 -1.4229
20366SOL     OW62538   4.640   2.025  10.284  0.4630 -0.4308  0.2344
20366SOL    HW162539   4.597   2.101  10.244  0.9833  0.0333  0.5502
20366SOL    HW262540   4.721   2.014  10.234  0.9002 -0.1272  0.8641
20367SOL     OW62541   5.073   4.260   8.016  0.5966 -1.0684 -0.1232
20367SOL    HW162542   5.090   4.288   8.106 -0.2286 -0.5042 -0.1336
20367SOL    HW262543   4.989   4.215   8.021 -0.3220  0.4998 -0.9073
20368SOL     OW62544   3.443   5.851   0.661  0.2788 -0.3868 -0.4959
20368SOL    HW162545   3.379   5.903   0.709  0.2234 -1.8560  1.1326
20368SOL    HW262546   3.483   5.912   0.599 -0.2982  1.3691  0.8024
20369SOL     OW62547   5.509   2.853   7.069 -0.2608  0.1779 -0.0867
20369SOL    HW162548   5.474   2.816   7.150  1.8648 -0.3298  0.6690
20369SOL    HW262549   5.472   2.799   7.000 -0.2900 -0.8837  0.7240
20370SOL     OW62550   3.791   0.051  11.895 -0.3713  0.5221 -0.2629
20370SOL    HW162551   3.849   0.109  11.945 -0.3333 -0.7365  1.2181
20370SOL    HW262552   3.841   0.028  11.817  0.6902  0.3433  0.4570
20371SOL     OW62553   5.979   7.951   7.605 -0.1865 -0.3497 -0.2281
20371SOL    HW162554   5.960   7.893   7.532  0.5017 -1.7819  0.6876
20371SOL    HW262555   6.073   7.941   7.621  0.2044  1.9009 -0.7539
20372SOL     OW62556   5.301   2.976   4.747 -0.1800  0.6429 -0.4230
20372SOL    HW162557   5.272   2.973   4.656  0.1070  0.9702 -0.5263
20372SOL    HW262558   5.380   3.030   4.746 -0.5853  1.2639  0.1359
20373SOL     OW62559   0.008   4.320   8.975 -0.4881 -0.1682 -0.3191
20373SOL    HW162560   0.057   4.295   8.896 -1.7478 -2.7055 -0.3863
20373SOL    HW262561   0.026   4.250   9.038  0.6227  1.8817  1.7963
20374SOL     OW62562   4.775   4.557   6.838 -0.5537  0.1871  0.7747
20374SOL    HW162563   4.851   4.572   6.782 -0.9606  2.7846  0.7934
20374SOL    HW262564   4.721   4.493   6.790 -0.4560  1.6554 -1.4029
20375SOL     OW62565   5.546   2.034   9.577 -0.2188 -0.1045 -0.0807
20375SOL    HW162566   5.582   2.118   9.551 -1.7406  1.0512  1.3402
20375SOL    HW262567   5.578   2.021   9.667 -1.3033 -0.2547  0.2922
20376SOL     OW62568   1.894   0.400  10.886 -0.6549  0.1243 -0.1031
20376SOL    HW162569   1.959   0.375  10.951  0.6193  1.4754 -0.8022
20376SOL    HW262570   1.944   0.415  10.805 -1.8175  1.1508 -0.6745
20377SOL     OW62571   4.847   3.451   3.137  0.1177  0.1894  0.2895
20377SOL    HW162572   4.758   3.462   3.170 -0.3901 -1.5501 -0.3539
20377SOL    HW262573   4.865   3.531   3.088 -0.2727  1.4752  2.1323
20378SOL     OW62574   1.665   1.564   1.804  0.5212  0.4351  0.1574
20378SOL    HW162575   1.676   1.657   1.820 -1.9914  1.5383 -3.3385
20378SOL    HW262576   1.707   1.549   1.719 -1.0370 -1.0611 -0.4095
20379SOL     OW62577   7.151   5.293   5.355  0.0357 -0.2473  0.3249
20379SOL    HW162578   7.211   5.237   5.404 -0.5592 -1.0538  0.1391
20379SOL    HW262579   7.167   5.381   5.391  0.2609 -0.6790  1.3319
20380SOL     OW62580   1.090   1.335   6.881 -0.0076 -0.3112 -0.0747
20380SOL    HW162581   1.034   1.406   6.851  0.0995  0.8644  2.3182
20380SOL    HW262582   1.050   1.306   6.963  0.9797 -1.8112 -0.0844
20381SOL     OW62583   0.749   2.367   4.101 -0.1104  0.4010 -0.5149
20381SOL    HW162584   0.813   2.347   4.033 -0.1170  1.9030 -0.9892
20381SOL    HW262585   0.801   2.393   4.177 -0.1366  0.6349 -0.5764
20382SOL     OW62586   5.178   5.742   6.850  0.4570 -0.3028 -0.1732
20382SOL    HW162587   5.157   5.831   6.820  1.4730  0.4073  1.1213
20382SOL    HW262588   5.190   5.751   6.944  0.7668 -1.7960 -0.0441
20383SOL     OW62589   3.699   4.421   8.865  0.3765  0.5158 -0.0650
20383SOL    HW162590   3.652   4.446   8.785 -0.0905  0.4639  0.1885
20383SOL    HW262591   3.632   4.379   8.920  0.3075  1.9514  1.0142
20384SOL     OW62592   7.700   7.085   5.736 -0.2138 -0.1799  0.1730
20384SOL    HW162593   7.610   7.108   5.713 -0.7729  0.1323  2.4338
20384SOL    HW262594   7.732   7.161   5.785  0.0591 -1.6003  2.3309
20385SOL     OW62595   4.251   4.922  11.849  0.2923  0.2903 -0.1611
20385SOL    HW162596   4.237   4.882  11.935 -0.5631 -0.3917 -0.6049
20385SOL    HW262597   4.292   5.006  11.868  3.2220 -1.2189  0.7637
20386SOL     OW62598   2.727   5.199   6.739  0.3112 -0.2186  0.3836
20386SOL    HW162599   2.807   5.149   6.754  1.7913  1.5623 -1.0547
20386SOL    HW262600   2.750   5.289   6.762 -2.1522 -0.0187  2.5527
20387SOL     OW62601   7.231   5.611   1.806  0.2441  0.4538  0.3069
20387SOL    HW162602   7.265   5.595   1.894  2.0229 -0.2418 -0.4763
20387SOL    HW262603   7.266   5.697   1.782  2.6826 -0.7940 -0.9878
20388SOL     OW62604   0.383   7.607   5.683  0.2080  0.0289  0.3909
20388SOL    HW162605   0.403   7.523   5.641  0.6719 -0.1352  0.9375
20388SOL    HW262606   0.305   7.591   5.734  1.1803 -0.5080  1.7604
20389SOL     OW62607   4.451   7.124   9.386 -0.0101 -0.3400  0.2865
20389SOL    HW162608   4.419   7.094   9.471 -0.8554 -0.8592 -0.2032
20389SOL    HW262609   4.541   7.153   9.403 -0.5801  0.7427  1.6079
20390SOL     OW62610   7.510   0.860  11.364 -0.2266  0.1265 -0.0553
20390SOL    HW162611   7.475   0.837  11.450 -0.2802 -0.1925 -0.1619
20390SOL    HW262612   7.486   0.952  11.352  0.1666  0.3015  0.4615
20391SOL     OW62613   7.427   6.010  10.716  0.0280 -0.4094 -0.1574
20391SOL    HW162614   7.447   5.946  10.648 -0.6222 -0.4280 -0.3352
20391SOL    HW262615   7.493   6.078  10.706 -0.2442 -0.2683 -0.9853
20392SOL     OW62616   0.702   7.182  10.892  0.2586  0.0053 -0.1647
20392SOL    HW162617   0.766   7.236  10.845  1.9711 -1.1983  0.6783
20392SOL    HW262618   0.746   7.098  10.904 -1.2403 -0.6423  1.0754
20393SOL     OW62619   2.635   0.515  10.583 -0.2432  0.3853  0.4117
20393SOL    HW162620   2.715   0.472  10.614  1.4599  1.8717 -1.6599
20393SOL    HW262621   2.573   0.504  10.656  1.3776 -1.9156  1.6065
20394SOL     OW62622   6.326   1.468   8.347  0.5207 -0.0001  0.1898
20394SOL    HW162623   6.416   1.501   8.359  1.2304 -1.3845 -1.0863
20394SOL    HW262624   6.327   1.425   8.262 -2.3158  2.9313 -1.5566
20395SOL     OW62625   5.587   2.573   8.586 -0.2521  0.6337  0.4533
20395SOL    HW162626   5.561   2.591   8.496 -1.3999  1.2517  0.8873
20395SOL    HW262627   5.636   2.650   8.613  0.6881  0.1576  0.1573
20396SOL     OW62628   0.816   7.949   4.895  0.0560  0.1483  0.5623
20396SOL    HW162629   0.744   7.942   4.958 -0.8538 -0.0225 -0.4472
20396SOL    HW262630   0.784   7.903   4.817  0.6642  1.3209 -0.4299
20397SOL     OW62631   5.870   1.812   3.179 -0.1017  0.6882  0.1905
20397SOL    HW162632   5.799   1.767   3.224 -0.4202  0.2964 -0.6815
20397SOL    HW262633   5.877   1.768   3.094  1.9117  0.0084  0.6556
20398SOL     OW62634   2.373   4.478  10.015  0.0916  0.3739  0.1848
20398SOL    HW162635   2.468   4.487  10.003  0.4827 -3.6989 -1.2414
20398SOL    HW262636   2.337   4.474   9.927 -0.9953 -1.0229  0.6569
20399SOL     OW62637   4.313   5.519  10.855  0.3955  0.0558  0.0093
20399SOL    HW162638   4.391   5.471  10.826 -0.4751 -0.8228 -1.0142
20399SOL    HW262639   4.246   5.495  10.790 -0.6969  0.8479  0.8174
20400SOL     OW62640   0.450   6.948  10.826 -0.2664  0.1083  0.2373
20400SOL    HW162641   0.419   6.890  10.756 -0.7315  1.4313 -0.6948
20400SOL    HW262642   0.417   6.908  10.906  1.2027 -2.0373 -0.1521
20401SOL     OW62643   2.004   3.362   5.556  0.1756 -0.1698  0.2677
20401SOL    HW162644   1.911   3.378   5.538  0.3123 -1.5331 -2.0590
20401SOL    HW262645   2.004   3.309   5.635 -0.9458  0.7291  0.9020
20402SOL     OW62646   0.663   4.169  11.211  0.5039  0.4502 -0.3126
20402SOL    HW162647   0.662   4.079  11.178  0.7530  0.2405  0.2422
20402SOL    HW262648   0.660   4.223  11.133 -0.8944 -0.0365 -0.6359
20403SOL     OW62649   2.258   7.275   5.157 -0.7523  0.0097 -0.1156
20403SOL    HW162650   2.310   7.225   5.221 -1.0650 -2.2352 -1.5160
20403SOL    HW262651   2.176   7.226   5.150 -1.1608  0.8418 -1.4006
20404SOL     OW62652   3.814   6.273   1.320 -0.1421  0.5604  0.3952
20404SOL    HW162653   3.802   6.291   1.414 -0.9839 -0.3757  0.4803
20404SOL    HW262654   3.779   6.351   1.277 -0.6352  0.6008  0.8443
20405SOL     OW62655   2.825   3.738   9.907  0.8589 -0.3556 -0.3978
20405SOL    HW162656   2.917   3.743   9.935  0.3838  2.6158  0.9493
20405SOL    HW262657   2.830   3.698   9.819  3.4391 -0.1663 -0.4247
20406SOL     OW62658   7.326   2.766  12.147 -0.2585  0.1898  0.6704
20406SOL    HW162659   7.373   2.746  12.066  0.2209 -1.3412  1.2966
20406SOL    HW262660   7.313   2.861  12.144 -1.8066  0.0118 -2.0169
20407SOL     OW62661   0.255   6.507   4.892 -0.1405 -0.6852  0.2054
20407SOL    HW162662   0.207   6.426   4.876  0.7276 -1.4716  1.3896
20407SOL    HW262663   0.188   6.575   4.887 -0.8206 -1.4004 -1.2041
20408SOL     OW62664   6.988   2.644   0.786 -0.0832  0.2833 -0.1788
20408SOL    HW162665   6.941   2.672   0.864  1.3706  1.2495  0.3911
20408SOL    HW262666   7.002   2.725   0.736  0.6198 -0.0464 -0.5311
20409SOL     OW62667   1.212   3.997   5.315  0.0268  0.4980 -0.3904
20409SOL    HW162668   1.163   4.059   5.368 -1.9404 -1.3386  0.1161
20409SOL    HW262669   1.223   3.920   5.371  1.4593 -0.0235 -1.3261
20410SOL     OW62670   6.448   2.011  12.042  0.2113 -0.4001  0.4610
20410SOL    HW162671   6.432   2.073  12.113  2.5163  1.0526 -0.1789
20410SOL    HW262672   6.502   1.942  12.082 -1.3584 -1.4429  0.8818
20411SOL     OW62673   4.298   1.545   5.804  0.0244  0.4917 -0.2024
20411SOL    HW162674   4.379   1.513   5.844  0.2737 -0.3716 -1.3575
20411SOL    HW262675   4.304   1.517   5.713 -2.1314 -0.6675 -0.0447
20412SOL     OW62676   3.035   5.559  11.896  0.3855  0.5376  0.4094
20412SOL    HW162677   3.012   5.481  11.846  0.4742  1.2696 -0.8112
20412SOL    HW262678   3.005   5.540  11.985 -3.3374  0.6751 -0.6513
20413SOL     OW62679   1.114   4.822  11.271 -0.3015 -0.1602 -0.6477
20413SOL    HW162680   1.181   4.876  11.313 -0.6240  0.1136 -0.4783
20413SOL    HW262681   1.160   4.777  11.200  0.1296 -0.2149 -0.3370
20414SOL     OW62682   4.795   7.094   5.965  0.2503 -0.0480 -0.5336
20414SOL    HW162683   4.731   7.049   5.909  0.7383 -0.8144 -0.4994
20414SOL    HW262684   4.794   7.044   6.046 -0.0657  0.7419 -0.0424
20415SOL     OW62685   3.157   5.695   5.519 -0.3924 -0.2396 -0.7377
20415SOL    HW162686   3.210   5.758   5.569 -0.8901 -0.5556  0.2113
20415SOL    HW262687   3.199   5.692   5.433  1.0796 -0.4054 -0.0467
20416SOL     OW62688   6.423   7.591   2.761  0.6101 -0.2136 -0.0731
20416SOL    HW162689   6.490   7.634   2.707 -0.0047  1.3195  0.3561
20416SOL    HW262690   6.414   7.504   2.721  0.4255  0.7220 -2.2541
20417SOL     OW62691   2.756   0.755  11.865  0.9663  0.1034  0.0288
20417SOL    HW162692   2.700   0.814  11.915  1.1103  0.7286 -0.5303
20417SOL    HW262693   2.834   0.743  11.919  0.1683 -1.0468  0.9669
20418SOL     OW62694   5.339   3.299  10.554 -0.6572  0.1258 -0.0205
20418SOL    HW162695   5.357   3.233  10.486  0.7598 -0.2928  0.7136
20418SOL    HW262696   5.322   3.248  10.633 -0.0381  0.6135  0.4409
20419SOL     OW62697   2.818   4.159  10.486 -0.4552  0.6194 -0.3081
20419SOL    HW162698   2.819   4.097  10.413  0.3105 -0.7733  0.8232
20419SOL    HW262699   2.736   4.207  10.476 -1.3172 -0.9048 -0.9878
20420SOL     OW62700   2.545   7.249  10.914 -0.0358  0.7924 -0.0721
20420SOL    HW162701   2.545   7.222  11.006 -0.4962 -0.7919 -0.5054
20420SOL    HW262702   2.489   7.327  10.912  1.6162  2.0919  1.2812
20421SOL     OW62703   2.171   6.405   2.248  0.1992 -0.1724 -0.3716
20421SOL    HW162704   2.160   6.319   2.289  1.4693  0.1796  0.7553
20421SOL    HW262705   2.201   6.386   2.159 -0.7339 -0.9034 -0.5472
20422SOL     OW62706   7.102   6.056   0.168 -0.1769 -0.2552  0.4433
20422SOL    HW162707   7.053   6.129   0.204 -0.4602  0.0895 -0.5898
20422SOL    HW262708   7.111   5.994   0.240 -0.7591  0.3770  1.0683
20423SOL     OW62709   4.033   2.677   0.421 -0.1666 -0.2624  0.4032
20423SOL    HW162710   4.036   2.617   0.495  1.3883  0.1643  0.7145
20423SOL    HW262711   4.096   2.746   0.443 -0.2431  0.2756 -0.9663
20424SOL     OW62712   6.809   3.946   2.759  0.3641  0.4523 -0.3907
20424SOL    HW162713   6.725   3.963   2.718 -0.6273 -2.9230 -0.0204
20424SOL    HW262714   6.787   3.907   2.844  2.3434  0.9886  0.4375
20425SOL     OW62715   1.355   1.802   0.460  0.3716  0.5383 -0.2413
20425SOL    HW162716   1.278   1.753   0.489  0.5988  0.3845  0.1111
20425SOL    HW262717   1.372   1.864   0.532 -2.0242  3.6482 -2.0931
20426SOL     OW62718   3.451   1.507   5.165  0.2483  0.1750  0.4942
20426SOL    HW162719   3.486   1.520   5.077 -0.3794  0.9197  0.3475
20426SOL    HW262720   3.505   1.436   5.201  0.2774 -0.3985 -0.6113
20427SOL     OW62721   5.810   1.159   1.216 -0.1381 -0.3773 -1.0015
20427SOL    HW162722   5.751   1.113   1.276  0.6035 -0.7024 -0.5049
20427SOL    HW262723   5.762   1.164   1.134 -1.1948  0.1198 -0.3685
20428SOL     OW62724   0.916   3.506   3.883  0.0959  0.2290 -0.2128
20428SOL    HW162725   0.884   3.592   3.855  1.7434  0.3308 -2.0806
20428SOL    HW262726   1.009   3.519   3.898  0.2234 -1.0730  0.2514
20429SOL     OW62727   2.182   1.647   0.178 -0.2221  0.1142  0.2489
20429SOL    HW162728   2.199   1.721   0.235 -2.3333  0.0578  1.0395
20429SOL    HW262729   2.148   1.579   0.236 -0.1291 -0.8034 -0.7307
20430SOL     OW62730   2.679   6.506   9.181 -0.8770 -0.3966  0.2171
20430SOL    HW162731   2.723   6.578   9.136  0.3320 -1.7925 -0.9678
20430SOL    HW262732   2.665   6.538   9.270 -1.1540  1.5778 -0.4972
20431SOL     OW62733   2.195   5.930   2.510  0.3535 -0.1213  0.4148
20431SOL    HW162734   2.153   5.846   2.531 -0.3376 -0.1510 -0.9948
20431SOL    HW262735   2.124   5.994   2.517  0.6216  0.1809  0.3788
20432SOL     OW62736   7.934   2.610  10.088 -0.0272  0.5680 -0.2680
20432SOL    HW162737   7.974   2.697  10.090 -0.5503  0.8852 -2.0452
20432SOL    HW262738   7.845   2.625  10.118  0.0680  0.5339  0.0316
20433SOL     OW62739   2.526   0.045  10.652 -0.2474 -0.3209  0.0596
20433SOL    HW162740   2.597   0.028  10.715 -1.4829 -0.6306  1.4085
20433SOL    HW262741   2.570   0.090  10.579  1.3452 -0.5387  0.8250
20434SOL     OW62742   5.332   6.076   5.281 -0.3685 -0.5124  0.2879
20434SOL    HW162743   5.408   6.073   5.222 -1.3153 -0.9589 -0.9654
20434SOL    HW262744   5.369   6.069   5.369  1.0518 -0.5105 -0.2881
20435SOL     OW62745   4.647   6.031   7.113 -0.8417 -0.1334  0.2326
20435SOL    HW162746   4.564   6.027   7.160 -0.6492 -1.9689  0.4681
20435SOL    HW262747   4.624   6.056   7.024 -2.1227 -3.9404 -0.6605
20436SOL     OW62748   4.636   5.938   1.042  0.1635 -0.0297 -0.1522
20436SOL    HW162749   4.697   5.925   0.970 -0.0083 -2.0056 -0.0114
20436SOL    HW262750   4.664   6.020   1.083  1.7959 -0.1333 -0.9747
20437SOL     OW62751   2.749   1.869   5.280 -0.2260  0.5387 -0.4491
20437SOL    HW162752   2.816   1.937   5.275 -1.2642  1.6077 -0.3101
20437SOL    HW262753   2.714   1.876   5.369  0.0808 -0.6112 -0.2251
20438SOL     OW62754   6.584   1.070   1.439  0.1506  0.1971  0.6800
20438SOL    HW162755   6.537   1.136   1.491 -0.5372  0.0645  0.2430
20438SOL    HW262756   6.531   1.060   1.360  1.4616  0.7947 -0.3222
20439SOL     OW62757   0.797   7.377   0.183  0.8248  0.0361  0.0950
20439SOL    HW162758   0.726   7.326   0.222  0.3876  2.5227  2.8942
20439SOL    HW262759   0.786   7.364   0.089 -1.8895 -1.5261  0.5027
20440SOL     OW62760   0.435   3.158   6.237  0.5403  0.1126  0.2575
20440SOL    HW162761   0.359   3.217   6.232  0.8977  0.5944  0.3802
20440SOL    HW262762   0.419   3.103   6.313  0.1491 -0.0183  0.0799
20441SOL     OW62763   5.477   5.986   3.647  0.2058 -0.5349 -0.0422
20441SOL    HW162764   5.424   6.064   3.660 -0.7479 -1.3345  1.1300
20441SOL    HW262765   5.506   5.962   3.735 -2.2839 -3.3340  0.1679
20442SOL     OW62766   0.980   1.833   9.332 -0.0803 -0.2840 -0.3792
20442SOL    HW162767   1.060   1.808   9.284  0.3253 -0.5244  0.4027
20442SOL    HW262768   1.009   1.844   9.422 -0.8127  0.2859 -0.2083
20443SOL     OW62769   2.744   2.402   1.295  0.3164  0.0402  0.4236
20443SOL    HW162770   2.810   2.349   1.341  2.5373  1.6871 -0.7127
20443SOL    HW262771   2.697   2.447   1.366  1.7086  0.2960  1.2325
20444SOL     OW62772   1.659   1.216   5.102  0.0812 -0.1995  0.1775
20444SOL    HW162773   1.601   1.223   5.026  0.7080 -0.0235 -0.2978
20444SOL    HW262774   1.718   1.144   5.080  0.9632  0.5520  0.0005
20445SOL     OW62775   0.112   1.812   5.977  0.1218  0.1347  0.3793
20445SOL    HW162776   0.203   1.842   5.972 -0.2306  1.8766  2.7224
20445SOL    HW262777   0.060   1.892   5.974 -1.1844 -0.6194  1.6092
20446SOL     OW62778   6.553   3.839   4.346  0.4900  0.2167  0.1814
20446SOL    HW162779   6.595   3.759   4.314  0.3533  0.5353 -0.8517
20446SOL    HW262780   6.534   3.821   4.438  1.1505 -0.6490  0.1659
20447SOL     OW62781   3.869   6.688  11.606 -0.7298  0.1997  0.3712
20447SOL    HW162782   3.793   6.741  11.628 -0.9735  0.2978 -0.6333
20447SOL    HW262783   3.848   6.651  11.520 -1.3556 -2.9480  1.7385
20448SOL     OW62784   5.337   6.664   3.360  0.2268 -0.0283 -0.3747
20448SOL    HW162785   5.329   6.650   3.266 -1.1946 -0.5540 -0.1950
20448SOL    HW262786   5.431   6.673   3.375  0.3764  2.5094 -2.1799
20449SOL     OW62787   7.060   1.986   4.245 -0.7416 -0.3457 -0.0138
20449SOL    HW162788   7.118   2.036   4.303 -1.6259  0.9265 -0.1848
20449SOL    HW262789   7.077   2.022   4.158  1.1644 -2.7743 -0.7638
20450SOL     OW62790   6.001   0.279   4.187  0.0235  0.3592 -0.6025
20450SOL    HW162791   5.906   0.287   4.194  0.0141 -0.7910  0.8954
20450SOL    HW262792   6.018   0.292   4.093 -1.7719 -0.9351 -1.1747
20451SOL     OW62793   4.921   6.135  11.976 -0.2635 -0.0124  0.1367
20451SOL    HW162794   4.866   6.063  11.947 -0.1124  0.5890 -1.7717
20451SOL    HW262795   5.005   6.122  11.931 -0.1810  1.2499 -0.1173
20452SOL     OW62796   4.227   5.512   5.727 -0.3105 -0.0715 -0.3214
20452SOL    HW162797   4.276   5.594   5.723 -0.8737  0.2287 -2.2475
20452SOL    HW262798   4.171   5.521   5.804  1.3172  0.3347  0.8479
20453SOL     OW62799   0.275   1.504   0.224  0.2227 -0.4865  0.1216
20453SOL    HW162800   0.350   1.557   0.253 -0.3429  0.9195 -0.8727
20453SOL    HW262801   0.314   1.436   0.169  0.7853  0.4038 -0.6280
20454SOL     OW62802   2.891   1.369   9.853  0.1968 -0.0314 -0.0851
20454SOL    HW162803   2.862   1.455   9.884  0.8425  0.0103  0.4164
20454SOL    HW262804   2.976   1.384   9.814  0.5321 -0.5178  0.4369
20455SOL     OW62805   5.268   5.999   2.801 -0.1299 -0.1018 -0.0086
20455SOL    HW162806   5.275   6.014   2.706 -1.0709  0.9309  0.0616
20455SOL    HW262807   5.192   5.942   2.811  0.6865 -1.2117  0.0624
20456SOL     OW62808   0.168   2.776  11.875 -0.8789  0.1861  0.4888
20456SOL    HW162809   0.202   2.834  11.943 -1.2909 -0.3542  1.1637
20456SOL    HW262810   0.087   2.740  11.911 -0.1306 -1.5895  0.5232
20457SOL     OW62811   2.491   3.482   5.512 -0.2492  0.2072 -0.3883
20457SOL    HW162812   2.451   3.404   5.474  1.9865 -1.0840 -0.2665
20457SOL    HW262813   2.481   3.470   5.607  1.8946 -1.0525 -0.2615
20458SOL     OW62814   2.258   5.284   5.141 -0.4948 -0.1540 -0.1119
20458SOL    HW162815   2.191   5.216   5.150 -1.5672  0.8149 -0.5174
20458SOL    HW262816   2.216   5.364   5.174 -0.1096  0.7957 -1.7669
20459SOL     OW62817   7.603   0.701  10.543  0.4987 -0.3551  0.3123
20459SOL    HW162818   7.530   0.674  10.487  1.3893 -1.6652 -0.2551
20459SOL    HW262819   7.609   0.796  10.530  0.2897 -0.5406 -1.3662
20460SOL     OW62820   4.928   2.188   1.778 -1.1855 -0.2670 -0.0359
20460SOL    HW162821   4.899   2.152   1.694 -0.9921  0.1064 -0.2693
20460SOL    HW262822   4.997   2.128   1.807 -1.8557 -0.8920  0.2936
20461SOL     OW62823   3.659   2.878   4.369 -0.2454 -0.2139 -0.7903
20461SOL    HW162824   3.589   2.819   4.395  0.9858 -1.3029  0.1514
20461SOL    HW262825   3.617   2.964   4.364 -1.3821 -0.6287  0.9948
20462SOL     OW62826   6.339   6.486   0.108 -0.1910 -0.2267 -0.2953
20462SOL    HW162827   6.269   6.539   0.069 -0.9862 -0.9637  0.1020
20462SOL    HW262828   6.350   6.521   0.196 -0.2381 -0.2777 -0.2692
20463SOL     OW62829   1.723   2.073   5.332 -0.0457 -0.3884  0.2201
20463SOL    HW162830   1.653   2.138   5.344 -1.0460 -1.7100  2.0480
20463SOL    HW262831   1.778   2.110   5.263 -0.2436  2.6599  1.5415
20464SOL     OW62832   4.827   2.951   0.329  0.4557  0.4243  0.7165
20464SOL    HW162833   4.819   2.861   0.297 -1.0482 -0.0776  2.3368
20464SOL    HW262834   4.760   3.000   0.282 -1.6276 -0.2729  2.8173
20465SOL     OW62835   5.252   0.363   1.198  0.4519 -0.2627  0.0331
20465SOL    HW162836   5.234   0.449   1.237 -0.5864 -0.3522 -0.2287
20465SOL    HW262837   5.300   0.316   1.266 -1.0904 -0.3143  1.1384
20466SOL     OW62838   5.608   3.088  11.314 -0.3038  0.0377  0.2467
20466SOL    HW162839   5.634   3.070  11.224 -0.7604 -2.9642  0.6101
20466SOL    HW262840   5.686   3.068  11.366 -0.2079  1.2388  0.6013
20467SOL     OW62841   3.989   6.340   2.273  0.3888  0.0195  0.0345
20467SOL    HW162842   4.028   6.418   2.312  0.4052  0.5173 -0.9535
20467SOL    HW262843   3.973   6.281   2.347  1.1560  0.6183  0.6854
20468SOL     OW62844   3.595   2.104   7.686  0.1914  0.0713  0.4800
20468SOL    HW162845   3.514   2.061   7.714 -0.8098  0.9201 -0.9837
20468SOL    HW262846   3.566   2.177   7.631  1.9852 -0.7220 -1.6882
20469SOL     OW62847   2.057   4.948   1.032 -0.3849  0.1323  0.1470
20469SOL    HW162848   2.152   4.942   1.028 -0.3960 -1.0866  1.0450
20469SOL    HW262849   2.039   4.987   1.117 -0.7029 -1.4077  0.8214
20470SOL     OW62850   0.376   7.139  11.807  0.2001 -0.4883 -0.0552
20470SOL    HW162851   0.459   7.160  11.850 -0.6131  0.0635  1.3214
20470SOL    HW262852   0.397   7.136  11.714  1.4998  0.9802  0.1488
20471SOL     OW62853   0.575   3.090  11.408 -0.1715  0.3918 -0.4987
20471SOL    HW162854   0.592   3.094  11.502  0.6521 -0.5738 -0.5899
20471SOL    HW262855   0.660   3.108  11.367 -0.0234 -1.2639 -1.0144
20472SOL     OW62856   3.593   6.460  11.042 -0.2027 -0.3395  0.3287
20472SOL    HW162857   3.529   6.414  10.988  0.6145  0.2595 -1.2153
20472SOL    HW262858   3.630   6.392  11.098 -1.5330 -0.8551  0.6388
20473SOL     OW62859   4.911   3.820   3.890 -0.0770  0.5242  0.6040
20473SOL    HW162860   4.886   3.898   3.939 -0.8331  0.3384  0.5332
20473SOL    HW262861   4.832   3.766   3.889  0.7234 -0.7282  1.5629
20474SOL     OW62862   3.173   5.207   9.939  0.2241  0.0894  0.2648
20474SOL    HW162863   3.086   5.190   9.976 -0.3084  2.0176  0.0385
20474SOL    HW262864   3.157   5.218   9.845  0.6996  0.4382  0.2188
20475SOL     OW62865   0.207   3.336   8.207  0.2865 -0.0592  0.0196
20475SOL    HW162866   0.222   3.430   8.205 -0.4697  0.0712  0.5909
20475SOL    HW262867   0.114   3.326   8.224  0.4956 -0.9171  0.7191
20476SOL     OW62868   0.830   4.389   5.479 -0.1780 -0.4902 -0.1208
20476SOL    HW162869   0.735   4.389   5.470 -0.0624 -0.0928 -1.6488
20476SOL    HW262870   0.854   4.482   5.478  0.2176 -0.5793  0.5177
20477SOL     OW62871   5.422   4.507   5.603  0.4382  0.2668 -0.0302
20477SOL    HW162872   5.345   4.511   5.547 -2.0695  0.8172  3.1306
20477SOL    HW262873   5.453   4.417   5.596 -1.0925 -0.2391 -0.6789
20478SOL     OW62874   1.108   4.393  11.444 -0.2334 -0.4174 -0.3378
20478SOL    HW162875   1.102   4.360  11.355  0.6436 -0.7646 -0.2710
20478SOL    HW262876   1.091   4.317  11.500  0.9653 -0.6008 -0.1969
20479SOL     OW62877   1.866   5.981  12.193  0.0560  0.2735 -0.3644
20479SOL    HW162878   1.803   5.913  12.170  2.3548 -2.0991 -0.1601
20479SOL    HW262879   1.951   5.942  12.173  1.5970  2.3838  1.5858
20480SOL     OW62880   1.946   6.285   3.807 -0.2233 -0.6015  0.7523
20480SOL    HW162881   2.031   6.262   3.769  0.0328 -2.8496  2.4787
20480SOL    HW262882   1.882   6.261   3.739  0.3646 -1.9445  0.6407
20481SOL     OW62883   1.886   4.037  10.350  0.3711  0.0119 -0.0416
20481SOL    HW162884   1.811   4.087  10.317 -0.6997 -0.0078  2.1673
20481SOL    HW262885   1.955   4.103  10.363 -0.4971  0.6979  1.3122
20482SOL     OW62886   2.552   5.139   6.523 -0.4051  0.5729  0.4141
20482SOL    HW162887   2.621   5.168   6.582 -1.3716  3.1210  0.3932
20482SOL    HW262888   2.577   5.173   6.437 -0.6262 -0.3433 -0.0272
20483SOL     OW62889   6.288   0.812   1.091  0.1243  0.2262 -0.1786
20483SOL    HW162890   6.193   0.824   1.098  0.1599  0.1622  0.5737
20483SOL    HW262891   6.301   0.718   1.102  0.2829  0.2527 -0.1353
20484SOL     OW62892   6.722   3.903  12.175 -0.0883  0.0229  0.6577
20484SOL    HW162893   6.716   3.833  12.240 -0.3731 -0.4099  0.1769
20484SOL    HW262894   6.639   3.949  12.181  0.4139  0.8260  1.5297
20485SOL     OW62895   1.567   2.131   1.357 -0.3609 -0.1252  0.2511
20485SOL    HW162896   1.661   2.126   1.377 -0.4958 -1.6083  0.6567
20485SOL    HW262897   1.561   2.098   1.267 -0.5353 -0.6091  0.4334
20486SOL     OW62898   0.725   3.485   5.814  1.0970 -0.5663  0.0164
20486SOL    HW162899   0.673   3.467   5.736  1.8715 -0.8694 -0.4476
20486SOL    HW262900   0.662   3.488   5.885  0.4235 -0.6913 -0.5634
20487SOL     OW62901   2.460   6.758   7.559 -0.1037  0.0151  0.1333
20487SOL    HW162902   2.438   6.840   7.603  1.8062  0.5962  0.0955
20487SOL    HW262903   2.553   6.765   7.540 -0.1261 -1.7213 -0.8572
20488SOL     OW62904   0.001   2.906   3.752 -0.5348 -0.6894 -0.2784
20488SOL    HW162905  -0.030   2.946   3.833 -1.4060  0.3263 -1.0863
20488SOL    HW262906  -0.043   2.955   3.682  4.7143  2.8302 -1.7349
20489SOL     OW62907   7.093   2.787   4.545 -0.3773 -0.3539 -0.6396
20489SOL    HW162908   7.066   2.764   4.633  0.3752 -0.3264 -0.3961
20489SOL    HW262909   7.034   2.738   4.488 -0.3677 -0.9712 -0.1247
20490SOL     OW62910   4.060   6.591   0.959 -0.4552 -0.3956  0.4053
20490SOL    HW162911   3.985   6.622   1.009 -0.2848  1.1434 -0.2204
20490SOL    HW262912   4.034   6.505   0.927 -2.9764  1.0302 -1.7704
20491SOL     OW62913   2.547   5.606   2.207 -0.2364 -0.0317 -0.1565
20491SOL    HW162914   2.597   5.562   2.276 -0.0898 -0.5059 -0.5546
20491SOL    HW262915   2.464   5.630   2.249 -0.0191 -0.0253  0.2734
20492SOL     OW62916   5.927   3.268   8.315  0.0140  0.0656 -0.3867
20492SOL    HW162917   5.931   3.193   8.256  1.6389 -0.9329  0.8903
20492SOL    HW262918   6.018   3.298   8.321 -0.0609  0.0452  1.6297
20493SOL     OW62919   4.667   1.266   0.486 -0.1631  0.3454 -0.1629
20493SOL    HW162920   4.685   1.285   0.578 -2.5129 -2.5250  1.0592
20493SOL    HW262921   4.751   1.237   0.451  0.6541  0.9428  1.2081
20494SOL     OW62922   4.716   0.808   5.791  0.1244  0.2762  0.3347
20494SOL    HW162923   4.720   0.727   5.740 -0.6318  0.8043 -0.6195
20494SOL    HW262924   4.684   0.873   5.728 -2.1306  0.6804  1.7971
20495SOL     OW62925   6.400   5.165   3.776  0.4111 -0.0372 -0.0876
20495SOL    HW162926   6.429   5.133   3.862  0.3743 -2.8242 -1.0289
20495SOL    HW262927   6.443   5.108   3.713 -1.2771  0.5249 -1.8419
20496SOL     OW62928   0.970   3.697   4.177 -0.0011 -0.1415  1.1145
20496SOL    HW162929   0.889   3.716   4.130 -1.0265 -0.6094  2.6105
20496SOL    HW262930   1.039   3.726   4.118 -1.2843  2.4294  0.7232
20497SOL     OW62931   1.904   5.195   1.876  0.0234 -0.2551  0.2803
20497SOL    HW162932   1.846   5.166   1.946 -0.5608 -1.5351 -0.6836
20497SOL    HW262933   1.902   5.123   1.812  0.1467  1.0628 -1.2713
20498SOL     OW62934   4.835   5.226   1.790  0.0514 -0.0436 -0.0436
20498SOL    HW162935   4.763   5.170   1.760 -2.1573  3.1384 -1.3945
20498SOL    HW262936   4.855   5.281   1.714  1.0011  1.9658  1.5512
20499SOL     OW62937   3.932   1.500   9.587  0.0949 -0.0053  0.1395
20499SOL    HW162938   3.892   1.517   9.673  1.7703 -0.3028  1.0201
20499SOL    HW262939   3.884   1.424   9.554  0.2349 -0.6620  1.3828
20500SOL     OW62940   4.919   7.373   3.991  0.3433  0.2764  0.4624
20500SOL    HW162941   4.891   7.307   4.055 -0.7138  1.0472  0.8265
20500SOL    HW262942   4.989   7.420   4.036  0.3233  0.1336  0.6490
20501SOL     OW62943   5.473   4.631   3.632  0.4054 -0.0452 -0.1398
20501SOL    HW162944   5.381   4.639   3.657  0.5447 -0.7451  0.6344
20501SOL    HW262945   5.494   4.539   3.644  1.3277  0.1869  0.1202
20502SOL     OW62946   1.370   7.952   4.810 -0.5511 -0.0918  0.3092
20502SOL    HW162947   1.420   7.949   4.892  0.0254 -0.4316 -0.0480
20502SOL    HW262948   1.282   7.923   4.835  0.5036 -3.9183  0.2143
20503SOL     OW62949   7.531   1.470   9.292  0.4881  0.0035  0.1620
20503SOL    HW162950   7.550   1.558   9.325 -1.9981  1.0321 -0.8639
20503SOL    HW262951   7.606   1.447   9.238  1.7749  0.9237  1.4926
20504SOL     OW62952   4.381   7.838   4.614  0.1757 -0.2706 -0.1207
20504SOL    HW162953   4.463   7.806   4.577 -1.4081 -0.3685 -3.9115
20504SOL    HW262954   4.333   7.758   4.638  0.1538 -0.3199 -0.3289
20505SOL     OW62955   0.470   2.187   6.959 -0.1175  0.4370 -0.9557
20505SOL    HW162956   0.489   2.198   7.052 -1.0912 -0.1036 -0.6744
20505SOL    HW262957   0.451   2.275   6.927 -0.0327  0.5887 -0.5916
20506SOL     OW62958   7.936   5.299   2.415 -0.4008 -0.4032 -0.1406
20506SOL    HW162959   7.926   5.274   2.323 -1.6745 -1.0578  0.1528
20506SOL    HW262960   7.862   5.357   2.433 -0.5619 -0.8425  0.6497
20507SOL     OW62961   3.369   0.021  12.248 -0.7090 -0.1650  0.1763
20507SOL    HW162962   3.321   0.087  12.198 -0.1664 -0.5721 -0.9245
20507SOL    HW262963   3.432   0.072  12.300  0.4063  0.1960 -1.4192
20508SOL     OW62964   7.103   6.309  11.588  0.3676 -0.0394 -0.3408
20508SOL    HW162965   7.079   6.242  11.652  1.0407 -0.2265 -0.2817
20508SOL    HW262966   7.193   6.287  11.563 -0.4188 -0.9406 -2.5753
20509SOL     OW62967   3.179   5.357   0.957  0.2098 -0.1835 -0.2472
20509SOL    HW162968   3.085   5.347   0.944  0.5203 -2.1940 -1.2816
20509SOL    HW262969   3.202   5.290   1.021  0.5782  2.1280  2.2571
20510SOL     OW62970   7.446   2.407  10.326  0.5122  0.1030  0.2296
20510SOL    HW162971   7.442   2.438  10.417 -0.6385 -0.9666  0.5641
20510SOL    HW262972   7.413   2.317  10.330 -1.3565  0.6485 -1.5278
20511SOL     OW62973   1.159   4.606   1.907 -0.0713 -0.2511  0.2384
20511SOL    HW162974   1.167   4.701   1.920 -1.0256 -0.0483 -0.5591
20511SOL    HW262975   1.130   4.573   1.992  1.4899 -0.0143  0.8986
20512SOL     OW62976   2.655   1.131   9.431  0.0622  0.2976  0.0645
20512SOL    HW162977   2.583   1.148   9.492  1.9893  2.6750  1.8652
20512SOL    HW262978   2.722   1.196   9.453  1.6268  0.1560 -3.4561
20513SOL     OW62979   0.281   0.393   2.395  0.0890  0.2797 -0.1393
20513SOL    HW162980   0.299   0.303   2.368  0.7516 -0.5263  2.6133
20513SOL    HW262981   0.186   0.398   2.403 -0.0060  0.1015 -1.0616
20514SOL     OW62982   7.702   3.078  10.128  0.1631 -0.2625  0.2068
20514SOL    HW162983   7.728   2.998  10.081  0.3579 -0.7948  1.2057
20514SOL    HW262984   7.616   3.057  10.165  1.2424 -0.9096  2.4986
20515SOL     OW62985   6.531   4.692   5.116 -0.3880  0.0743 -0.1408
20515SOL    HW162986   6.560   4.662   5.202  0.2095  0.6077 -0.1491
20515SOL    HW262987   6.438   4.670   5.113 -0.3095 -0.3683  0.4557
20516SOL     OW62988   2.555   5.129   7.339  0.4164 -0.3324 -0.4294
20516SOL    HW162989   2.584   5.038   7.336 -1.8719 -1.0905 -0.9852
20516SOL    HW262990   2.473   5.130   7.290 -0.0598  1.8620  0.3094
20517SOL     OW62991   5.246   6.988  10.452 -0.6516 -0.4737  0.3531
20517SOL    HW162992   5.303   6.971  10.527  3.2857  3.7826 -1.2739
20517SOL    HW262993   5.167   7.025  10.491  0.6336  0.1865  2.5054
20518SOL     OW62994   7.929   4.112   5.141 -0.6316 -0.2007  0.2894
20518SOL    HW162995   7.940   4.089   5.049  0.4586  1.4834 -0.0519
20518SOL    HW262996   8.018   4.130   5.172 -0.9440 -1.0900  1.7891
20519SOL     OW62997   7.812   7.203   9.050 -0.1254  0.6295 -0.2366
20519SOL    HW162998   7.771   7.202   8.964 -0.6561 -0.1206  0.0118
20519SOL    HW262999   7.744   7.235   9.109  0.0523  0.6119 -0.0180
20520SOL     OW63000   7.247   4.872   4.021 -0.4615  0.0448 -0.0035
20520SOL    HW163001   7.261   4.915   4.105 -2.1579 -0.0028  0.3221
20520SOL    HW263002   7.219   4.943   3.963 -2.9057 -0.4894  0.4410
20521SOL     OW63003   5.345   3.315   3.026 -0.4784  0.0478 -0.2938
20521SOL    HW163004   5.283   3.255   2.985 -0.9421  0.3899 -0.1079
20521SOL    HW263005   5.290   3.372   3.081  0.1230 -0.4440  0.8562
20522SOL     OW63006   5.812   6.706   6.906 -0.4454  0.0728 -0.1348
20522SOL    HW163007   5.742   6.713   6.971 -0.2258  0.6628  0.0408
20522SOL    HW263008   5.851   6.620   6.922 -0.4488  0.1762  0.4563
20523SOL     OW63009   6.213   3.625   8.454 -0.0723  0.2661  0.8039
20523SOL    HW163010   6.190   3.678   8.378  1.2393 -0.5786 -0.2279
20523SOL    HW263011   6.308   3.625   8.456 -0.0649 -0.8305  1.6474
20524SOL     OW63012   4.892   0.340  11.772  0.5215  0.4776  0.1669
20524SOL    HW163013   4.861   0.250  11.767  0.4232  0.4167  1.4747
20524SOL    HW263014   4.820   0.389  11.813  1.1035  0.8581  0.7670
20525SOL     OW63015   0.654   6.447   8.929 -0.6759  0.2189  0.3866
20525SOL    HW163016   0.572   6.462   8.881 -1.4125 -1.2462  1.1345
20525SOL    HW263017   0.629   6.391   9.002  0.9527  0.0265  0.8262
20526SOL     OW63018   5.280   1.401   1.444 -0.6844 -0.2349 -0.4097
20526SOL    HW163019   5.368   1.439   1.450 -0.8165  0.3522 -1.7384
20526SOL    HW263020   5.229   1.447   1.510 -0.6581  1.4337 -1.5019
20527SOL     OW63021   4.254   2.108   3.708  0.6287 -0.0340 -0.3876
20527SOL    HW163022   4.217   2.030   3.667  1.0313 -0.6829  0.4446
20527SOL    HW263023   4.255   2.174   3.639  0.6026 -0.8649 -1.1992
20528SOL     OW63024   1.924   1.574  10.852 -0.1488 -0.0042  0.3904
20528SOL    HW163025   1.982   1.502  10.879  0.8848  1.2032  1.6059
20528SOL    HW263026   1.983   1.649  10.841 -1.3841  1.0830  0.8689
20529SOL     OW63027   2.939   4.646   8.789  0.3530  0.5666 -0.7326
20529SOL    HW163028   2.968   4.737   8.793  1.0873  0.2991  1.2438
20529SOL    HW263029   2.867   4.641   8.852  1.1134 -0.4466  0.1008
20530SOL     OW63030   5.073   2.955   9.263  0.2326  0.5723  0.4852
20530SOL    HW163031   5.034   3.043   9.263 -3.4087 -0.8535  1.0632
20530SOL    HW263032   5.073   2.929   9.355  0.6660 -0.2714  0.2504
20531SOL     OW63033   5.606   7.174   1.726  0.7005  0.0315 -0.2584
20531SOL    HW163034   5.684   7.136   1.766  0.5391  0.1607  0.1753
20531SOL    HW263035   5.634   7.261   1.696  0.7904 -0.0230 -0.3331
20532SOL     OW63036   6.833   6.736   7.526 -0.0924 -0.5347  0.4441
20532SOL    HW163037   6.850   6.691   7.609  0.6226 -1.4740 -0.1803
20532SOL    HW263038   6.861   6.673   7.459  2.8362  1.4990 -0.4658
20533SOL     OW63039   2.342   5.991   9.220  0.1547 -0.3500  0.0026
20533SOL    HW163040   2.276   6.009   9.286 -0.1451 -2.7094  0.4094
20533SOL    HW263041   2.421   6.034   9.253 -0.4742  0.1477  0.8961
20534SOL     OW63042   5.671   3.136   6.219 -0.0037  0.8573  0.0650
20534SOL    HW163043   5.653   3.229   6.206 -1.4159  0.3014 -2.5530
20534SOL    HW263044   5.726   3.112   6.145 -0.7152 -0.6567  0.0052
20535SOL     OW63045   3.974   4.086   0.302 -0.5235  0.1800  0.5266
20535SOL    HW163046   3.921   4.037   0.365 -0.9982 -0.9091 -0.6696
20535SOL    HW263047   3.935   4.065   0.217  1.4801 -0.2175 -0.3508
20536SOL     OW63048   6.434   3.236   1.163  0.4135 -0.1346  0.1701
20536SOL    HW163049   6.455   3.179   1.089  0.0856  0.0057 -0.0314
20536SOL    HW263050   6.417   3.321   1.123 -0.2248 -0.1673  0.3603
20537SOL     OW63051   1.174   1.806  11.255 -0.5574 -0.0638  0.3691
20537SOL    HW163052   1.238   1.874  11.279  0.3075 -1.2793  1.6779
20537SOL    HW263053   1.167   1.812  11.160  1.1495  0.4332  0.2427
20538SOL     OW63054   2.897   7.228   3.233 -0.0063  0.2592  0.7918
20538SOL    HW163055   2.837   7.290   3.274 -0.5079  0.8862 -0.8083
20538SOL    HW263056   2.947   7.281   3.170  0.8646 -0.6205  0.7109
20539SOL     OW63057   7.870   2.524  11.773  0.0316  0.2463  0.2240
20539SOL    HW163058   7.903   2.489  11.691 -2.7365 -0.8379 -0.5618
20539SOL    HW263059   7.873   2.450  11.834  0.1753  0.4592  0.4753
20540SOL     OW63060   6.523   4.174  11.498  0.3864 -0.3564 -0.2559
20540SOL    HW163061   6.580   4.142  11.427 -0.1079 -1.5993 -0.1295
20540SOL    HW263062   6.580   4.178  11.574  0.7592  0.3179 -0.5628
20541SOL     OW63063   0.496   6.928   7.133  0.4148 -0.1752 -0.4502
20541SOL    HW163064   0.406   6.920   7.102  0.6506 -2.0209 -0.7773
20541SOL    HW263065   0.531   7.005   7.086 -0.5729 -0.2660 -1.3647
20542SOL     OW63066   5.562   0.907   0.427 -0.3521  0.4394  0.3867
20542SOL    HW163067   5.476   0.909   0.469 -0.7952 -2.3163 -0.1764
20542SOL    HW263068   5.601   0.992   0.447 -2.1634  0.7922  2.8345
20543SOL     OW63069   2.210   4.037  11.426  0.3802 -0.1699  0.1431
20543SOL    HW163070   2.299   4.002  11.420  0.9856  1.3121  0.2169
20543SOL    HW263071   2.195   4.047  11.520  0.0954 -0.4774  0.1346
20544SOL     OW63072   3.234   7.738  12.310  0.2222 -0.5307  0.4270
20544SOL    HW163073   3.217   7.724  12.404  1.5925  0.1435  0.8052
20544SOL    HW263074   3.297   7.810  12.308  0.2854 -0.6027 -1.0298
20545SOL     OW63075   5.656   3.611   0.874 -0.2554  0.2177  0.0151
20545SOL    HW163076   5.590   3.584   0.810 -0.3605 -0.6216  0.4637
20545SOL    HW263077   5.665   3.706   0.860 -3.0498  0.7796  1.3034
20546SOL     OW63078   0.696   7.306   9.497  0.3538 -0.2024  0.4288
20546SOL    HW163079   0.669   7.306   9.588  1.8107 -0.9394  0.9003
20546SOL    HW263080   0.792   7.308   9.500  0.6051 -3.3538 -0.9668
20547SOL     OW63081   2.017   2.729   5.050 -0.0742 -1.1335 -0.2159
20547SOL    HW163082   2.079   2.763   4.984 -0.0142 -0.0180  0.3838
20547SOL    HW263083   2.073   2.695   5.120 -0.1238 -0.4667  0.1579
20548SOL     OW63084   4.669   1.439   9.868 -0.2125 -0.0818  0.2136
20548SOL    HW163085   4.725   1.393   9.806  0.7646  1.7601 -0.3284
20548SOL    HW263086   4.604   1.484   9.814 -0.0097  0.6768  0.5852
20549SOL     OW63087   2.993   0.186  11.812  0.0052  0.0863 -0.2849
20549SOL    HW163088   3.086   0.165  11.820 -0.2731 -1.1525 -0.2279
20549SOL    HW263089   2.947   0.117  11.859 -0.9622  0.6314 -0.3831
20550SOL     OW63090   5.025   1.245   5.305  0.1300  0.2114 -0.0884
20550SOL    HW163091   5.076   1.200   5.238 -1.3231  2.1460 -2.7389
20550SOL    HW263092   4.941   1.199   5.306 -0.1093  0.6434 -0.1431
20551SOL     OW63093   0.242   3.636   4.018  0.0945  0.4133  0.2090
20551SOL    HW163094   0.188   3.557   4.011  1.3080 -0.4307  0.0343
20551SOL    HW263095   0.328   3.604   4.045  0.1574  1.8620  1.9078
20552SOL     OW63096   0.766   6.921  10.368 -1.1373 -0.1000 -0.7133
20552SOL    HW163097   0.810   6.855  10.314  1.0213  0.9910 -0.4327
20552SOL    HW263098   0.809   7.004  10.344 -1.4252  0.6922  1.2848
20553SOL     OW63099   1.037   1.643   9.556  0.2967  0.2583  1.0162
20553SOL    HW163100   1.078   1.730   9.562  1.1596 -0.2210  2.9097
20553SOL    HW263101   1.110   1.582   9.567  0.2508 -0.9020 -3.4057
20554SOL     OW63102   5.815   0.176   6.385  0.6207  0.0074 -0.2667
20554SOL    HW163103   5.863   0.117   6.328  1.3340  1.0557 -0.7867
20554SOL    HW263104   5.809   0.130   6.469  3.0080  0.0600 -0.0167
20555SOL     OW63105   5.868   3.570   1.294 -0.0336 -0.3468  0.3681
20555SOL    HW163106   5.827   3.549   1.378  0.8146  0.8225  1.0971
20555SOL    HW263107   5.801   3.620   1.247  0.1836  0.7341  1.1738
20556SOL     OW63108   0.882   5.213   4.126  0.2707 -0.5436 -0.0657
20556SOL    HW163109   0.969   5.175   4.132  0.5440  0.0808  0.0261
20556SOL    HW263110   0.882   5.261   4.043  0.4105  0.4080  0.4687
20557SOL     OW63111   3.370   6.343  12.099  0.3669  0.1505  0.5706
20557SOL    HW163112   3.311   6.312  12.167 -0.7797  0.2320 -0.3531
20557SOL    HW263113   3.316   6.401  12.045  1.4830  0.8015  0.1069
20558SOL     OW63114   1.101   2.807  11.797  0.1223 -0.0228 -0.0918
20558SOL    HW163115   1.102   2.792  11.702  1.1519  1.8419 -0.4233
20558SOL    HW263116   1.172   2.868  11.813 -0.7216  0.5655  1.7456
20559SOL     OW63117   2.289   0.364   1.197 -0.2292 -0.1024 -0.0391
20559SOL    HW163118   2.360   0.426   1.183 -0.4816  0.1361 -0.2970
20559SOL    HW263119   2.255   0.385   1.284  0.5825 -0.8004  0.4490
20560SOL     OW63120   7.939   1.446   9.745  0.1481  0.0620  0.0694
20560SOL    HW163121   7.891   1.369   9.716  1.9370 -1.2441  0.3788
20560SOL    HW263122   7.950   1.499   9.666  1.4218 -1.4585 -0.8287
20561SOL     OW63123   3.073   4.623  10.447 -0.6176  0.0258 -0.0998
20561SOL    HW163124   3.157   4.577  10.448  0.3970  1.8004  1.6370
20561SOL    HW263125   3.008   4.553  10.454  0.5908 -1.4630 -2.2293
20562SOL     OW63126   1.818   0.988   8.645  0.3079 -0.3419 -0.6893
20562SOL    HW163127   1.790   0.922   8.581 -1.0259 -0.1353 -0.3446
20562SOL    HW263128   1.739   1.038   8.664  0.7086 -0.3195  1.0496
20563SOL     OW63129   0.633   7.811   2.406  0.1132 -0.1760 -0.4859
20563SOL    HW163130   0.690   7.876   2.366  0.3253 -0.5770 -0.8451
20563SOL    HW263131   0.603   7.757   2.333 -0.5830 -0.0813 -0.2777
20564SOL     OW63132   2.983   0.294   9.622 -0.6846  0.1185  0.6621
20564SOL    HW163133   2.940   0.278   9.538  1.0269  3.2997 -1.0237
20564SOL    HW263134   2.971   0.388   9.637 -1.4134 -0.4142  4.3740
20565SOL     OW63135   0.610   2.625   9.258 -0.0962  0.6012 -0.0887
20565SOL    HW163136   0.604   2.721   9.257 -0.1088  0.5984 -0.8238
20565SOL    HW263137   0.660   2.604   9.180 -1.5706 -0.0917 -0.8759
20566SOL     OW63138   4.290   1.491   5.140 -0.1346 -0.4736 -0.3264
20566SOL    HW163139   4.374   1.497   5.186  0.4590 -0.7881 -1.3429
20566SOL    HW263140   4.293   1.561   5.075  1.1692 -2.9619 -3.2044
20567SOL     OW63141   0.393   0.964   5.950 -0.1207 -0.0283 -0.4495
20567SOL    HW163142   0.421   0.972   5.858  0.3801 -1.0446 -0.3958
20567SOL    HW263143   0.470   0.930   5.995 -0.5735 -0.1495  0.2393
20568SOL     OW63144   0.941   6.897   6.975 -0.6197  0.2442 -0.1996
20568SOL    HW163145   0.852   6.911   6.942 -0.8334  1.4603  0.8079
20568SOL    HW263146   0.985   6.847   6.905 -1.9470  0.0118 -0.9044
20569SOL     OW63147   0.272   4.265   9.320  0.6688  0.3957  0.7130
20569SOL    HW163148   0.264   4.205   9.246  1.6103  1.6572 -0.4528
20569SOL    HW263149   0.352   4.238   9.365  0.1535 -0.3030  1.2368
20570SOL     OW63150   0.824   7.738   4.402  0.2829 -0.4088 -0.2386
20570SOL    HW163151   0.745   7.686   4.409 -0.1615  0.0600 -1.4084
20570SOL    HW263152   0.847   7.734   4.309  1.1881  0.0973 -0.0511
20571SOL     OW63153   1.263   7.186   6.874 -0.5304 -0.2283 -0.1607
20571SOL    HW163154   1.235   7.147   6.791  0.5740  1.5788 -1.4577
20571SOL    HW263155   1.330   7.126   6.907  3.4973  1.7141 -3.6903
20572SOL     OW63156   0.324   3.160  11.408  0.1600 -0.0726 -0.1775
20572SOL    HW163157   0.409   3.117  11.415  0.2911  0.4792  3.1014
20572SOL    HW263158   0.261   3.094  11.434 -0.1342  0.3445  0.1742
20573SOL     OW63159   0.054   0.575   3.270  0.1609  0.4414  0.5403
20573SOL    HW163160   0.050   0.668   3.294  1.1793  0.4032  0.9073
20573SOL    HW263161   0.130   0.542   3.317 -1.0720 -0.9503  1.6450
20574SOL     OW63162   4.360   0.834  11.663 -0.1205 -0.5722  0.4783
20574SOL    HW163163   4.421   0.828  11.590  0.2055  3.4160  0.2102
20574SOL    HW263164   4.384   0.762  11.721  1.4160 -2.1893 -1.9840
20575SOL     OW63165   0.952   2.988   5.376  0.1389 -0.2232  0.4848
20575SOL    HW163166   0.938   2.932   5.453 -1.0259  0.0391  0.4835
20575SOL    HW263167   0.864   3.019   5.353  0.4318 -0.5030 -1.1205
20576SOL     OW63168   0.624   2.153  11.225  0.6800 -0.3849  0.0501
20576SOL    HW163169   0.647   2.191  11.310 -0.2047 -0.0070  0.1426
20576SOL    HW263170   0.601   2.062  11.245 -0.4688 -0.0455  0.4040
20577SOL     OW63171   4.845   4.940   8.954  0.6541  0.0048 -0.3017
20577SOL    HW163172   4.930   4.898   8.971  1.2878  1.8454  1.4726
20577SOL    HW263173   4.800   4.938   9.038 -0.3276  0.6668 -0.7944
20578SOL     OW63174   3.120   1.688  11.903  0.2232  0.4606  0.1111
20578SOL    HW163175   3.182   1.656  11.838 -0.4016  1.8109 -1.2351
20578SOL    HW263176   3.076   1.610  11.936  1.0454 -0.3073 -0.5687
20579SOL     OW63177   2.324   2.412   2.456  0.2818  0.5708 -0.3983
20579SOL    HW163178   2.397   2.418   2.518 -0.0594  1.4630 -0.0596
20579SOL    HW263179   2.345   2.337   2.400 -0.4174 -1.7116  2.1351
20580SOL     OW63180   7.833   6.785   8.299 -0.8098  0.1919 -0.1062
20580SOL    HW163181   7.759   6.728   8.323 -1.8280  1.3012 -0.5489
20580SOL    HW263182   7.898   6.769   8.368 -2.0122  0.2212  1.0877
20581SOL     OW63183   3.862   0.978   1.685 -0.0167  0.5700  0.3873
20581SOL    HW163184   3.869   0.919   1.761  2.9001  0.1949 -0.0544
20581SOL    HW263185   3.855   0.920   1.610 -1.4950  0.9239  0.2195
20582SOL     OW63186   1.240   1.369  10.096  0.0615  0.2371 -0.1325
20582SOL    HW163187   1.148   1.385  10.118 -0.8216 -1.8855 -1.9039
20582SOL    HW263188   1.281   1.347  10.180 -1.4551 -0.4211  0.4776
20583SOL     OW63189   0.958   4.668  10.969 -0.3084 -0.2217  0.1004
20583SOL    HW163190   0.910   4.587  10.988 -0.6513 -0.5505 -1.9538
20583SOL    HW263191   1.047   4.639  10.950 -0.1457  0.0240  0.4673
20584SOL     OW63192   4.561   2.263   5.750 -0.1997  0.0249 -0.3609
20584SOL    HW163193   4.604   2.231   5.670  0.3572 -0.7138  0.2236
20584SOL    HW263194   4.584   2.199   5.817 -1.0657  0.3770  0.2924
20585SOL     OW63195   3.048   7.482   0.673  0.1578 -0.1685 -0.6416
20585SOL    HW163196   3.006   7.426   0.608  0.1590 -0.9150 -0.0182
20585SOL    HW263197   3.137   7.448   0.681  0.3224  0.2584 -0.6439
20586SOL     OW63198   7.955   0.414  10.643 -0.0135  0.6944  0.0706
20586SOL    HW163199   7.954   0.462  10.726 -0.2604  0.7516  0.0359
20586SOL    HW263200   7.982   0.325  10.667  1.0459  0.9950  0.0479
20587SOL     OW63201   4.693   2.304   6.541  0.3664 -0.2774 -0.2331
20587SOL    HW163202   4.709   2.317   6.447  0.1291  0.9322 -0.1196
20587SOL    HW263203   4.630   2.231   6.544  0.1435 -0.1316 -1.0308
20588SOL     OW63204   2.107   4.193  10.315  0.6191  0.1381 -0.1293
20588SOL    HW163205   2.128   4.266  10.374 -0.4060  0.9545 -0.7288
20588SOL    HW263206   2.171   4.201  10.244  0.9023  0.0736  0.1164
20589SOL     OW63207   7.161   5.276   7.951  0.3375  0.1830 -0.1130
20589SOL    HW163208   7.147   5.203   7.890  1.0364  2.1792 -2.8404
20589SOL    HW263209   7.256   5.287   7.954  0.2219  1.4577 -0.4317
20590SOL     OW63210   2.623   0.766   6.772  0.0925 -0.0705 -0.2579
20590SOL    HW163211   2.538   0.744   6.810  0.4892 -0.2923  0.5379
20590SOL    HW263212   2.682   0.770   6.848  0.1834  3.1676 -0.3751
20591SOL     OW63213   2.840   4.958   7.021 -0.4106 -0.4783 -0.0297
20591SOL    HW163214   2.755   4.960   6.977 -0.2346 -0.1655 -0.3590
20591SOL    HW263215   2.857   5.049   7.044 -0.7555 -0.7039  1.1944
20592SOL     OW63216   3.419   6.107   3.161 -0.0854 -0.0659  0.1600
20592SOL    HW163217   3.509   6.139   3.165 -0.3225  0.5911  0.2446
20592SOL    HW263218   3.419   6.028   3.215 -0.1781  1.3954  2.4128
20593SOL     OW63219   6.939   4.174   5.266  0.0394 -0.3178 -0.0811
20593SOL    HW163220   6.994   4.099   5.284 -0.5337 -0.3475  1.6871
20593SOL    HW263221   6.860   4.138   5.226  0.9575 -0.3322 -2.0061
20594SOL     OW63222   7.171   4.121   3.153 -0.2438  0.5051  0.2118
20594SOL    HW163223   7.154   4.091   3.064 -1.0341 -0.0603  0.5383
20594SOL    HW263224   7.083   4.133   3.190  0.0639 -0.4628  1.3043
20595SOL     OW63225   7.863   0.085   6.276  1.1099 -0.1335  0.8546
20595SOL    HW163226   7.770   0.060   6.270  0.5489  1.7320  1.0953
20595SOL    HW263227   7.894   0.086   6.186  0.2426  1.4171  0.5446
20596SOL     OW63228   5.792   5.292   4.706  0.2530  0.0236  0.8175
20596SOL    HW163229   5.705   5.312   4.740  0.4482  0.0105  1.3443
20596SOL    HW263230   5.792   5.197   4.696 -1.2373  0.2679 -3.2404
20597SOL     OW63231   7.337   6.817   2.902 -0.4058  0.4320 -0.3613
20597SOL    HW163232   7.413   6.758   2.899 -0.4094  0.1069  2.5424
20597SOL    HW263233   7.264   6.760   2.926 -0.7282  1.3183  0.8617
20598SOL     OW63234   1.955   6.042   9.830  0.6143  0.7132  0.2053
20598SOL    HW163235   1.948   6.137   9.824  1.9852  0.8305  0.1205
20598SOL    HW263236   1.999   6.027   9.914  0.2588  0.1452  0.2954
20599SOL     OW63237   5.520   6.503   1.424 -0.2186  0.1410 -0.5184
20599SOL    HW163238   5.470   6.447   1.484  1.5729  0.2234  1.1544
20599SOL    HW263239   5.475   6.587   1.427  0.8940  0.7514  2.3705
20600SOL     OW63240   0.869   1.152   6.515 -0.6645 -0.3385 -0.4004
20600SOL    HW163241   0.922   1.122   6.589 -1.1009 -2.4907 -0.9074
20600SOL    HW263242   0.895   1.244   6.503 -0.7793  0.1937  2.5794
20601SOL     OW63243   7.127   3.875   9.707 -0.4865  0.0105  0.4823
20601SOL    HW163244   7.203   3.818   9.715 -0.0605  0.1909 -1.6087
20601SOL    HW263245   7.141   3.944   9.771  0.0697 -1.0455  1.5318
20602SOL     OW63246   7.489   5.189   3.513  0.0300  0.7811 -0.5402
20602SOL    HW163247   7.553   5.259   3.530 -0.7945  1.3738  0.2224
20602SOL    HW263248   7.404   5.230   3.530 -0.4688 -0.4073 -0.0836
20603SOL     OW63249   0.738   5.525   8.973  0.7699  0.0615 -0.6305
20603SOL    HW163250   0.645   5.501   8.981  1.1889 -2.7870 -2.6810
20603SOL    HW263251   0.760   5.563   9.059 -1.5636 -1.8839  0.9902
20604SOL     OW63252   6.119   0.643  10.379  0.1174  0.5003  0.0992
20604SOL    HW163253   6.177   0.594  10.438 -0.1400  0.6050  0.4439
20604SOL    HW263254   6.031   0.617  10.405  0.0015  0.5102 -0.2797
20605SOL     OW63255   4.463   1.239   9.717  0.2071 -0.1361  0.8869
20605SOL    HW163256   4.463   1.326   9.679  0.4701 -0.5006  0.0162
20605SOL    HW263257   4.539   1.238   9.776  0.7013 -0.0385  0.2624
20606SOL     OW63258   5.200   6.796   6.537 -0.2298 -0.4668  0.1340
20606SOL    HW163259   5.211   6.854   6.462 -1.3338 -0.3793  0.0312
20606SOL    HW263260   5.216   6.852   6.613  0.6014 -0.4900 -0.0124
20607SOL     OW63261   5.021   5.048   1.853  0.0359  0.7183 -0.6240
20607SOL    HW163262   5.088   5.078   1.914 -0.0680 -1.8941  0.9125
20607SOL    HW263263   4.973   5.128   1.830 -0.2369  1.8412  3.1332
20608SOL     OW63264   1.721   7.687  12.444 -0.5322 -0.6353 -0.7345
20608SOL    HW163265   1.729   7.639  12.362  0.4868 -2.6392  0.4745
20608SOL    HW263266   1.742   7.624  12.512 -0.1771  1.2666  1.0355
20609SOL     OW63267   2.771   3.610   5.094  0.0151  0.0827  0.4556
20609SOL    HW163268   2.757   3.561   5.175 -0.5323  1.6897  1.3817
20609SOL    HW263269   2.684   3.640   5.068  0.2723  0.1410 -0.3794
20610SOL     OW63270   7.166   4.032   2.332 -0.3412 -0.1900 -0.2073
20610SOL    HW163271   7.219   4.057   2.407 -0.4419 -1.2919  0.2536
20610SOL    HW263272   7.078   4.061   2.354  0.2909  3.6154 -1.8947
20611SOL     OW63273   3.393   6.805   1.573 -0.0694 -0.0465 -0.1363
20611SOL    HW163274   3.445   6.875   1.614 -0.3028  1.0990 -1.6810
20611SOL    HW263275   3.454   6.762   1.514 -0.3652 -0.0163 -0.4650
20612SOL     OW63276   5.121   2.290  11.587  0.0740  0.4188 -0.1922
20612SOL    HW163277   5.086   2.267  11.673  1.1849 -1.5172 -0.2043
20612SOL    HW263278   5.202   2.337  11.606  0.9624 -1.0745 -0.1303
20613SOL     OW63279   5.367   2.908   3.104  0.3909  0.5482 -1.0680
20613SOL    HW163280   5.449   2.860   3.105 -0.0742 -0.2762  0.1275
20613SOL    HW263281   5.377   2.975   3.172 -0.2574 -0.2079 -0.1857
20614SOL     OW63282   5.689   5.838  12.261  0.4542  0.1824  0.6449
20614SOL    HW163283   5.599   5.828  12.292 -0.3111  0.8819 -1.2166
20614SOL    HW263284   5.739   5.776  12.313 -1.3788 -1.3679  0.6646
20615SOL     OW63285   2.496   5.326   0.762  0.1961  0.1773 -0.1218
20615SOL    HW163286   2.424   5.289   0.710  0.5647 -1.3157  0.3888
20615SOL    HW263287   2.456   5.350   0.845  0.0415  0.5482 -0.3001
20616SOL     OW63288   4.947   7.754   4.511 -0.0031  0.1036  0.1967
20616SOL    HW163289   4.870   7.780   4.561 -1.4564 -2.5540 -0.4920
20616SOL    HW263290   4.913   7.696   4.442  2.3736  0.5542 -1.4890
20617SOL     OW63291   6.921   7.508   9.974 -0.8112  0.0016 -0.1416
20617SOL    HW163292   6.921   7.424   9.928 -1.1545  0.1347 -0.3819
20617SOL    HW263293   6.870   7.491  10.053 -0.7597 -0.0515 -0.1186
20618SOL     OW63294   7.615   1.156   8.729 -0.1397 -0.4756  0.2087
20618SOL    HW163295   7.615   1.241   8.772  1.0678 -1.3290  2.0704
20618SOL    HW263296   7.532   1.116   8.753 -0.5891  0.0478 -0.4430
20619SOL     OW63297   4.375   6.381   5.083  0.0175 -0.1114  0.4606
20619SOL    HW163298   4.383   6.476   5.072 -0.9612  0.1604  1.9086
20619SOL    HW263299   4.454   6.355   5.130  1.5000 -0.4512 -1.9906
20620SOL     OW63300   6.190   4.867   0.599  0.0751 -0.3587  0.0947
20620SOL    HW163301   6.214   4.897   0.512  0.6877  0.3336  0.4862
20620SOL    HW263302   6.175   4.773   0.589  0.2540 -0.3085 -0.7296
20621SOL     OW63303   5.064   1.649   5.053  0.0658  0.2575 -0.2865
20621SOL    HW163304   4.982   1.630   5.008  0.8580  0.3957 -1.8622
20621SOL    HW263305   5.059   1.601   5.135  0.3968 -3.7579 -2.3934
20622SOL     OW63306   3.876   2.937   5.898 -0.6239 -0.1762  0.4467
20622SOL    HW163307   3.902   2.941   5.990 -0.4961  0.4536  0.3889
20622SOL    HW263308   3.799   2.994   5.893  0.2311  0.9663 -0.1149
20623SOL     OW63309   3.811   0.834  10.555 -0.0952 -0.3858 -0.1659
20623SOL    HW163310   3.846   0.805  10.640 -0.8738 -0.3778  0.1651
20623SOL    HW263311   3.764   0.915  10.576  0.5896  0.1932 -0.7898
20624SOL     OW63312   4.745   5.354   5.226 -0.4566  0.0308  0.0109
20624SOL    HW163313   4.801   5.295   5.278  0.2603 -1.4278 -2.2801
20624SOL    HW263314   4.758   5.440   5.266  0.4979 -0.9184  1.8672
20625SOL     OW63315   4.566   0.559   4.935 -0.7349 -0.4330 -0.1524
20625SOL    HW163316   4.634   0.608   4.889 -1.5485  1.3795  0.4628
20625SOL    HW263317   4.607   0.476   4.958  2.2258  1.5023  2.4143
20626SOL     OW63318   0.090   5.066   5.397 -0.2832 -0.3057  0.0472
20626SOL    HW163319   0.128   4.985   5.364 -0.1594 -1.7759  3.4527
20626SOL    HW263320   0.165   5.120   5.420 -0.3691  0.7131 -1.8516
20627SOL     OW63321   5.802   5.907   3.301  0.2616  0.3450 -0.1579
20627SOL    HW163322   5.765   5.835   3.249  1.5749 -0.4123 -0.0830
20627SOL    HW263323   5.893   5.912   3.273  0.4197  1.3856  0.5116
20628SOL     OW63324   5.441   3.271  12.211 -0.0477 -0.4070 -0.1502
20628SOL    HW163325   5.412   3.282  12.302 -0.5150 -1.2947 -0.1720
20628SOL    HW263326   5.381   3.204  12.176 -0.0867  0.1771 -1.2135
20629SOL     OW63327   3.711   3.309   4.083  0.4040  0.6253  0.2688
20629SOL    HW163328   3.763   3.307   4.163  0.7154  0.0748  0.0545
20629SOL    HW263329   3.769   3.349   4.018 -0.2121  2.0680  0.5635
20630SOL     OW63330   7.627   4.338   6.223  0.3742 -0.4961  0.5356
20630SOL    HW163331   7.534   4.316   6.226  0.0150  0.9622  0.9899
20630SOL    HW263332   7.640   4.377   6.137  0.0009  1.4534  1.3058
20631SOL     OW63333   3.459   1.945  10.048 -0.1015 -0.1337 -0.2000
20631SOL    HW163334   3.422   2.016   9.995 -0.1566 -1.3641 -1.8799
20631SOL    HW263335   3.417   1.866  10.015  2.6123 -1.3947 -0.9399
20632SOL     OW63336   6.504   4.970   0.657  0.5921 -0.0493  0.0529
20632SOL    HW163337   6.447   5.014   0.594 -1.5785 -1.0091  1.2408
20632SOL    HW263338   6.552   5.042   0.699 -0.6100  0.9361 -0.1897
20633SOL     OW63339   2.293   1.399   9.291 -0.4688 -0.3407  0.1235
20633SOL    HW163340   2.243   1.327   9.329 -0.7990  0.8155  2.0446
20633SOL    HW263341   2.368   1.410   9.350  1.0629 -0.8373 -1.6663
20634SOL     OW63342   7.432   0.670   2.990 -0.0333  0.5019 -0.1644
20634SOL    HW163343   7.477   0.717   2.919 -0.3427  0.6731 -0.2501
20634SOL    HW263344   7.487   0.686   3.067  1.1435 -0.9565 -0.6530
20635SOL     OW63345   1.292   2.215   5.792 -0.4039 -0.6215  0.7386
20635SOL    HW163346   1.265   2.128   5.761  1.8528 -0.8731 -0.7400
20635SOL    HW263347   1.357   2.244   5.728 -1.8763  2.6886  0.5684
20636SOL     OW63348   3.430   2.535   7.583 -0.2466 -0.0247  0.1885
20636SOL    HW163349   3.448   2.449   7.546  0.5779  0.5303 -0.7662
20636SOL    HW263350   3.413   2.519   7.676  1.8763 -1.0080  0.4560
20637SOL     OW63351   6.648   1.506   9.732 -0.4286  0.4104  0.2879
20637SOL    HW163352   6.705   1.511   9.808 -1.2218 -0.4124  0.9654
20637SOL    HW263353   6.598   1.425   9.745 -1.2586  0.7573 -0.6235
20638SOL     OW63354   4.285   3.004   0.874 -0.5855  0.1569 -0.3924
20638SOL    HW163355   4.288   2.936   0.942  1.9975 -0.0509 -0.6064
20638SOL    HW263356   4.203   3.049   0.890 -0.5886 -0.5698  2.2249
20639SOL     OW63357   0.864   4.672   7.155 -0.1098  0.5244 -0.4323
20639SOL    HW163358   0.790   4.623   7.191  0.4064  1.1220  1.6224
20639SOL    HW263359   0.938   4.647   7.211  0.9477  0.9378 -1.6100
20640SOL     OW63360   0.165   5.460   3.577  0.7657 -0.2930 -0.6745
20640SOL    HW163361   0.120   5.376   3.584 -1.5080  0.9131  0.3141
20640SOL    HW263362   0.122   5.505   3.504 -2.3358  2.2529  2.3859
20641SOL     OW63363   6.432   1.072  11.498  0.7996  0.0663  0.0435
20641SOL    HW163364   6.460   1.031  11.416 -0.0776  0.4246 -0.4504
20641SOL    HW263365   6.417   1.164  11.475  0.9796  0.2698  0.7139
20642SOL     OW63366   3.484   5.249   8.762  0.6120  0.9302  0.3811
20642SOL    HW163367   3.573   5.248   8.796  1.0085  0.2601 -0.6466
20642SOL    HW263368   3.435   5.192   8.820  1.1771  0.1607  0.1109
20643SOL     OW63369   1.900   5.215   7.159 -0.3494 -0.1359 -0.0492
20643SOL    HW163370   1.950   5.142   7.196 -0.7956 -0.9191 -0.9420
20643SOL    HW263371   1.826   5.173   7.115 -0.4448  0.8305 -0.8407
20644SOL     OW63372   4.397   7.393   4.584 -0.0078 -0.1457 -0.0608
20644SOL    HW163373   4.452   7.456   4.630  0.1988 -0.6447  0.3950
20644SOL    HW263374   4.338   7.359   4.651  0.7845 -1.4216  0.0464
20645SOL     OW63375   2.494   2.285   3.614  0.4297  0.2628  0.5546
20645SOL    HW163376   2.433   2.307   3.685 -3.2479 -0.1700 -2.1934
20645SOL    HW263377   2.508   2.367   3.568 -0.7965 -0.2043 -0.7125
20646SOL     OW63378   0.477   7.272   7.932 -0.4221 -0.1327 -0.1703
20646SOL    HW163379   0.470   7.188   7.978  0.4794  0.2150  0.6426
20646SOL    HW263380   0.399   7.321   7.959 -0.1572 -0.1266  0.6112
20647SOL     OW63381   5.419   7.924   4.515 -0.1050 -0.1938  0.2892
20647SOL    HW163382   5.485   7.990   4.496 -0.3876 -0.2230 -0.9218
20647SOL    HW263383   5.428   7.905   4.608 -1.9017  3.6402  1.4282
20648SOL     OW63384   5.174   5.847   2.135 -0.1741 -0.3477 -0.2161
20648SOL    HW163385   5.215   5.930   2.159 -0.2823  0.1928 -1.7871
20648SOL    HW263386   5.232   5.809   2.069 -1.7229  0.0620 -1.9004
20649SOL     OW63387   6.695   0.183  11.018 -0.0902  0.8452  0.2300
20649SOL    HW163388   6.677   0.160  11.110 -1.4569  0.3202 -0.1483
20649SOL    HW263389   6.764   0.122  10.992 -2.3002 -1.6606 -0.1699
20650SOL     OW63390   0.508   4.902  10.487  0.7903  1.1219 -0.4326
20650SOL    HW163391   0.503   4.990  10.523 -0.3051  0.7582  0.3523
20650SOL    HW263392   0.533   4.914  10.396  2.2914  2.1429  0.0719
20651SOL     OW63393   3.743   4.915  12.075 -0.4957 -0.3543  0.1044
20651SOL    HW163394   3.693   4.874  12.004 -1.9135  2.7351 -0.8404
20651SOL    HW263395   3.685   4.909  12.151 -0.1197 -1.2219  0.3421
20652SOL     OW63396   0.323   5.489   6.136  0.0234 -0.3922 -0.2204
20652SOL    HW163397   0.403   5.437   6.127 -0.3584 -1.3992  1.7736
20652SOL    HW263398   0.253   5.425   6.146 -0.8395  0.4938 -0.3729
20653SOL     OW63399   0.839   5.257   8.994  0.5606 -0.2144 -0.5166
20653SOL    HW163400   0.830   5.348   8.967  0.9141 -0.2685 -0.8135
20653SOL    HW263401   0.932   5.245   9.009  0.7311 -0.9705 -2.0472
20654SOL     OW63402   5.709   0.933   0.792 -0.5177 -0.0085  0.6597
20654SOL    HW163403   5.797   0.946   0.756 -0.3644  0.3031  1.1401
20654SOL    HW263404   5.675   0.858   0.744  0.4422 -0.8562  1.2724
20655SOL     OW63405   2.497   6.013   5.964  0.1313 -0.1880 -0.1008
20655SOL    HW163406   2.438   5.998   6.038 -1.3938  1.4427 -0.8988
20655SOL    HW263407   2.565   6.071   5.998 -0.7406  0.8175 -0.0127
20656SOL     OW63408   1.467   6.586   9.726 -0.0547 -0.0399  0.0365
20656SOL    HW163409   1.505   6.501   9.747 -1.0516 -0.4123  0.3750
20656SOL    HW263410   1.396   6.597   9.790  0.3742  1.2702  0.3306
20657SOL     OW63411   5.745   6.350   4.879 -0.1991 -0.9894 -0.1880
20657SOL    HW163412   5.741   6.437   4.839  1.6485  0.0546  1.6874
20657SOL    HW263413   5.749   6.367   4.973  0.0210 -3.1298  0.2348
20658SOL     OW63414   4.621   0.406  11.432 -0.4150  0.0015 -0.3636
20658SOL    HW163415   4.699   0.353  11.448  0.2045  1.4430  1.9199
20658SOL    HW263416   4.652   0.476  11.375 -0.3123 -0.0402 -0.3594
20659SOL     OW63417   3.532   2.340   1.188 -0.5465  0.8045 -0.0479
20659SOL    HW163418   3.518   2.334   1.094 -0.5142  2.3898 -0.1772
20659SOL    HW263419   3.574   2.425   1.201 -0.5011  0.5925  1.4000
20660SOL     OW63420   1.055   2.779   9.974  0.1309  0.4943 -0.0319
20660SOL    HW163421   0.961   2.759   9.971  0.2278  0.1065 -1.9027
20660SOL    HW263422   1.078   2.795   9.883  2.1084 -0.4417  0.2601
20661SOL     OW63423   4.230   1.528   6.671  0.1900  0.3980 -0.2911
20661SOL    HW163424   4.258   1.447   6.714 -1.7817  0.3337  1.0151
20661SOL    HW263425   4.292   1.594   6.701 -0.5927  0.1629  2.0104
20662SOL     OW63426   1.062   4.936   7.365  0.5318 -0.2389  0.1294
20662SOL    HW163427   1.020   4.972   7.443  0.3822 -1.6540  0.7419
20662SOL    HW263428   1.115   4.863   7.397 -0.5960 -1.7419 -1.1952
20663SOL     OW63429   4.273   0.296  10.136  0.4878  0.0468 -0.0106
20663SOL    HW163430   4.236   0.320  10.221  1.1309 -2.0891  0.9441
20663SOL    HW263431   4.327   0.371  10.111  1.9006 -0.0465  2.4722
20664SOL     OW63432   7.303   4.854   9.454 -0.1275  0.2316  0.4766
20664SOL    HW163433   7.242   4.867   9.382  1.7119  1.6946 -0.9236
20664SOL    HW263434   7.324   4.761   9.452  0.1266  0.2917 -1.1252
20665SOL     OW63435   2.314   0.708   9.727 -0.5951 -0.3234  0.0493
20665SOL    HW163436   2.349   0.729   9.814  1.3265  0.5763 -0.8798
20665SOL    HW263437   2.241   0.769   9.715  0.1939  0.7164  0.3851
20666SOL     OW63438   5.448   0.675  10.218 -0.0789  0.3365 -0.2339
20666SOL    HW163439   5.483   0.644  10.302 -0.9838  1.7615  0.7160
20666SOL    HW263440   5.357   0.646  10.218 -0.2273  0.7942 -0.4811
20667SOL     OW63441   4.109   0.633   3.548  0.7601 -0.4391 -0.1431
20667SOL    HW163442   4.088   0.561   3.489 -0.0140  1.1524 -1.9386
20667SOL    HW263443   4.204   0.632   3.554  0.8854 -0.5267 -1.6464
20668SOL     OW63444   4.678   5.527  10.561  0.4077 -0.6243 -0.3007
20668SOL    HW163445   4.583   5.530  10.553  0.3243  0.5996  0.7506
20668SOL    HW263446   4.700   5.606  10.610  1.9546 -0.9916 -0.3498
20669SOL     OW63447   5.664   0.588   7.444  0.2635  0.7051  0.1564
20669SOL    HW163448   5.710   0.636   7.513  1.2450 -0.4267  0.3196
20669SOL    HW263449   5.698   0.625   7.362  2.2446 -0.7051  0.2488
20670SOL     OW63450   5.482   6.990   9.479 -0.4470  0.3276 -0.3133
20670SOL    HW163451   5.504   7.081   9.459 -0.7890  0.6501  0.7347
20670SOL    HW263452   5.559   6.956   9.524 -1.2465  0.8547  1.5288
20671SOL     OW63453   6.082   0.373   3.963  0.9767  0.2795 -0.2031
20671SOL    HW163454   6.058   0.447   3.907 -0.8959 -0.5560 -0.5700
20671SOL    HW263455   6.163   0.339   3.925  0.3326  0.4122 -1.7740
20672SOL     OW63456   2.396   6.022   5.719  0.2250  0.5520 -0.4989
20672SOL    HW163457   2.347   5.940   5.722 -0.5698  1.0560  0.7531
20672SOL    HW263458   2.436   6.030   5.805  0.1199  1.5829 -0.5328
20673SOL     OW63459   7.483   6.857   5.266 -0.5174  0.9584  0.1812
20673SOL    HW163460   7.466   6.861   5.172  0.8869  1.2861 -0.0764
20673SOL    HW263461   7.413   6.802   5.301 -1.1645  0.9930 -1.0225
20674SOL     OW63462   4.739   6.076   9.762 -0.1408  0.0822  0.4425
20674SOL    HW163463   4.729   6.163   9.800 -0.0486 -0.3301  1.4471
20674SOL    HW263464   4.710   6.016   9.831 -1.3380 -0.6486 -0.6417
20675SOL     OW63465   1.548   5.277   2.849 -0.3388 -0.3097  0.2684
20675SOL    HW163466   1.612   5.348   2.848 -2.5525  1.8044 -0.1948
20675SOL    HW263467   1.473   5.313   2.897 -1.7369 -2.1674 -0.3976
20676SOL     OW63468   4.972   0.112   8.377 -0.1443  0.2562 -0.4854
20676SOL    HW163469   5.029   0.127   8.452 -0.5725 -0.3819 -0.0077
20676SOL    HW263470   4.990   0.184   8.317  1.3935 -0.1123 -0.5004
20677SOL     OW63471   5.911   6.669   3.591 -0.0095  0.2727 -0.2635
20677SOL    HW163472   5.968   6.610   3.640 -0.5652 -0.4410 -0.4499
20677SOL    HW263473   5.864   6.611   3.530  0.2223  1.0490 -1.2125
20678SOL     OW63474   4.661   5.924  11.200 -0.0627  0.2413  0.1409
20678SOL    HW163475   4.689   5.921  11.109 -1.2865  0.1913 -0.2547
20678SOL    HW263476   4.687   6.011  11.231  2.2754 -0.4927  0.4257
20679SOL     OW63477   7.706   6.393   0.842  0.4377  0.1858 -0.1081
20679SOL    HW163478   7.625   6.401   0.892  0.6873  1.5690  0.1036
20679SOL    HW263479   7.770   6.363   0.906  0.2193 -0.3966 -0.1573
20680SOL     OW63480   2.838   2.915   3.322 -0.1577  0.2330 -0.0810
20680SOL    HW163481   2.931   2.927   3.342 -0.0029  0.4798 -0.9459
20680SOL    HW263482   2.833   2.916   3.227 -0.5967 -2.9818 -0.2191
20681SOL     OW63483   3.450   1.042  10.809  0.4568 -0.6682  0.3922
20681SOL    HW163484   3.471   1.134  10.794 -0.7880 -0.1654  1.4864
20681SOL    HW263485   3.446   1.003  10.722  2.7808 -0.1344 -0.0087
20682SOL     OW63486   0.387   1.189   1.431 -0.2337  0.1107  0.3151
20682SOL    HW163487   0.399   1.281   1.408 -0.9848  0.1754  0.1628
20682SOL    HW263488   0.326   1.190   1.504 -0.0854 -0.2541  0.4433
20683SOL     OW63489   3.849   7.711  10.151  0.1838 -0.5412 -0.0030
20683SOL    HW163490   3.931   7.695  10.104  1.4357  2.2060  1.0086
20683SOL    HW263491   3.876   7.725  10.242 -1.6342 -1.2925  0.6906
20684SOL     OW63492   2.907   6.459  11.625 -0.5568 -0.3967  0.2711
20684SOL    HW163493   2.834   6.454  11.564  0.3251  1.7655 -1.0755
20684SOL    HW263494   2.883   6.529  11.686  0.5351  0.6648 -0.4738
20685SOL     OW63495   5.825   1.340   5.312 -0.2692  0.1426 -0.7698
20685SOL    HW163496   5.815   1.298   5.397  0.0890  1.9479  0.2175
20685SOL    HW263497   5.740   1.382   5.296 -0.4196 -0.3867 -1.4541
20686SOL     OW63498   6.380   6.445   9.522  0.1752 -0.1156 -0.2431
20686SOL    HW163499   6.361   6.532   9.488  2.9032  0.9964  0.8128
20686SOL    HW263500   6.362   6.452   9.616  1.4277 -0.3416  0.0245
20687SOL     OW63501   0.846   3.653  11.682  0.0349 -0.0605  0.0688
20687SOL    HW163502   0.934   3.663  11.643  0.3886  0.0561  0.8786
20687SOL    HW263503   0.787   3.685  11.614  0.4463 -2.0214 -1.3009
20688SOL     OW63504   3.341   3.250  10.714 -0.0085  0.1561  0.4101
20688SOL    HW163505   3.359   3.162  10.683 -1.3769 -0.2923  0.8299
20688SOL    HW263506   3.252   3.269  10.684 -0.0800  1.0344  1.1131
20689SOL     OW63507   7.696   1.219   9.132 -0.4820 -0.2233  0.1099
20689SOL    HW163508   7.620   1.170   9.162 -0.1284 -0.9113 -0.1138
20689SOL    HW263509   7.767   1.155   9.128  0.4102  0.6321  1.4022
20690SOL     OW63510   7.958   4.351   2.840 -0.3284 -0.4391 -0.3201
20690SOL    HW163511   8.003   4.349   2.925 -1.7755 -1.4259  0.4804
20690SOL    HW263512   7.967   4.262   2.807  2.5890  0.5288 -2.6132
20691SOL     OW63513   7.053   0.279   4.028 -0.1457 -0.2917 -0.0330
20691SOL    HW163514   7.123   0.221   4.058 -0.3846 -0.0257  1.0821
20691SOL    HW263515   7.094   0.333   3.961  0.7584 -0.0937  0.6522
20692SOL     OW63516   1.946   7.503  10.785 -0.4446 -0.3295  0.7227
20692SOL    HW163517   2.015   7.513  10.850  0.3239 -1.0603  0.0372
20692SOL    HW263518   1.910   7.416  10.801  0.3536 -0.8800 -0.3909
20693SOL     OW63519   5.238   6.513   4.714  0.7963 -0.7794 -0.2151
20693SOL    HW163520   5.317   6.538   4.665 -0.1668  1.8879 -0.5509
20693SOL    HW263521   5.168   6.517   4.649 -0.1588  0.5082  0.8620
20694SOL     OW63522   1.029   7.591   9.074  0.5808  0.0491 -0.1485
20694SOL    HW163523   0.945   7.637   9.072 -0.8905 -2.3020  1.8132
20694SOL    HW263524   1.029   7.539   8.994  0.9017  1.1702 -0.9011
20695SOL     OW63525   7.558   0.635   0.648 -0.7536 -0.1457 -0.8465
20695SOL    HW163526   7.500   0.661   0.720 -0.6589  1.8597 -1.4274
20695SOL    HW263527   7.523   0.551   0.618 -2.0662 -0.0012  0.1800
20696SOL     OW63528   6.363   6.548   0.362  0.1238 -0.0245 -0.6732
20696SOL    HW163529   6.444   6.579   0.403 -0.5933  0.9782  0.0321
20696SOL    HW263530   6.322   6.492   0.428  0.8331 -1.6072 -1.5077
20697SOL     OW63531   2.285   0.374   5.366 -0.1072  0.3086 -0.3632
20697SOL    HW163532   2.375   0.401   5.345 -0.0578  0.3582 -0.0982
20697SOL    HW263533   2.266   0.419   5.449  0.2854 -1.1002  0.5350
20698SOL     OW63534   3.301   4.979   5.975  0.4224 -0.2998  0.5459
20698SOL    HW163535   3.377   4.924   5.956 -0.4362 -1.1743 -0.4777
20698SOL    HW263536   3.334   5.069   5.970  1.1200 -0.6206 -1.2593
20699SOL     OW63537   1.737   4.219   7.363 -0.0705 -0.3023  0.2763
20699SOL    HW163538   1.684   4.240   7.440 -1.0282 -0.4248 -0.3258
20699SOL    HW263539   1.693   4.142   7.326  0.5645 -0.4287 -0.2144
20700SOL     OW63540   5.128   3.998   4.930 -0.3826  0.1911 -0.7249
20700SOL    HW163541   5.093   4.000   4.841 -0.6839 -0.3306 -0.6232
20700SOL    HW263542   5.104   3.912   4.963 -1.5753  0.9082  0.3799
20701SOL     OW63543   4.808   5.320   9.013  0.1053 -0.4443  0.0836
20701SOL    HW163544   4.740   5.288   8.954 -0.0964  0.3673 -0.1367
20701SOL    HW263545   4.782   5.286   9.100  0.5093 -1.8051 -0.2951
20702SOL     OW63546   4.085   2.448   8.127  0.0892 -0.1430 -0.3012
20702SOL    HW163547   3.995   2.417   8.137 -0.8303  2.1023 -0.9542
20702SOL    HW263548   4.124   2.440   8.214 -0.8998 -0.6788  0.1006
20703SOL     OW63549   2.800   0.344   4.679  0.3246 -0.5512 -0.0483
20703SOL    HW163550   2.823   0.273   4.620  0.4446 -0.4088 -0.1727
20703SOL    HW263551   2.808   0.307   4.767 -0.8439 -1.0694 -0.1393
20704SOL     OW63552   6.697   3.154   4.129 -0.6961  0.2532 -0.1095
20704SOL    HW163553   6.647   3.172   4.209 -0.0084  1.6422  0.0245
20704SOL    HW263554   6.782   3.124   4.159 -1.5226 -2.6587 -0.3352
20705SOL     OW63555   6.477   7.584   3.788 -0.1555  0.4268  0.0762
20705SOL    HW163556   6.491   7.580   3.883 -0.5638  1.2750  0.1777
20705SOL    HW263557   6.449   7.496   3.764 -0.3721  0.2923  0.7993
20706SOL     OW63558   7.435   4.711   6.237 -0.8307  0.1279 -0.0377
20706SOL    HW163559   7.498   4.781   6.222  1.0750 -0.9775  2.1967
20706SOL    HW263560   7.350   4.755   6.238  0.0464  1.9674 -1.2188
20707SOL     OW63561   1.516   2.201   0.424  0.1058  0.6960  0.4524
20707SOL    HW163562   1.435   2.237   0.388  0.2583  0.1010 -0.5403
20707SOL    HW263563   1.487   2.140   0.492 -0.2646  0.6780  0.2813
20708SOL     OW63564   5.985   3.016   4.801 -0.1838  0.4445 -0.0659
20708SOL    HW163565   6.055   2.993   4.863 -0.3504  0.0680 -0.0207
20708SOL    HW263566   5.973   2.938   4.748  0.6000  1.0650 -1.1890
20709SOL     OW63567   1.900   6.035   1.291  1.0537  0.5985 -0.5491
20709SOL    HW163568   1.947   6.118   1.289 -0.3825  1.4659  0.0202
20709SOL    HW263569   1.900   6.005   1.200  1.2004  1.4579 -0.8463
20710SOL     OW63570   0.276   1.841   9.076  0.1189 -0.3260  0.7605
20710SOL    HW163571   0.191   1.809   9.106 -0.4308 -0.4318 -0.8287
20710SOL    HW263572   0.339   1.796   9.132 -0.8444 -0.7077  1.5652
20711SOL     OW63573   7.840   2.172   3.846 -0.2015  0.0282 -0.2586
20711SOL    HW163574   7.816   2.248   3.793  1.8751  0.6263 -0.4287
20711SOL    HW263575   7.925   2.144   3.811 -0.1147 -1.3194  0.9202
20712SOL     OW63576   0.146   5.223  10.295  0.2868 -0.4206 -0.1878
20712SOL    HW163577   0.056   5.193  10.307 -0.0216  0.1346 -1.0512
20712SOL    HW263578   0.188   5.155  10.242  0.1500 -0.2874 -0.4661
20713SOL     OW63579   6.029   2.762   8.866  0.2103  0.3761 -0.1285
20713SOL    HW163580   6.105   2.804   8.824 -0.1321  1.3443  0.1913
20713SOL    HW263581   6.065   2.722   8.945  0.5410  0.0689 -0.4299
20714SOL     OW63582   5.322   3.925  12.137 -0.6055 -0.4215 -0.0550
20714SOL    HW163583   5.340   3.927  12.043  2.0869 -0.7811  0.3704
20714SOL    HW263584   5.307   3.833  12.158 -3.3204 -0.1343 -0.3907
20715SOL     OW63585   6.892   1.852   0.074  0.1336  0.1531 -0.4202
20715SOL    HW163586   6.922   1.942   0.088 -1.5716  0.5277  1.2280
20715SOL    HW263587   6.965   1.797   0.103  1.2042  0.9649 -1.4640
20716SOL     OW63588   0.789   3.306  12.079  0.0443 -0.6571  0.5092
20716SOL    HW163589   0.856   3.283  12.014 -0.1855 -0.7161  0.2911
20716SOL    HW263590   0.822   3.385  12.122 -0.6177  0.4186 -0.8883
20717SOL     OW63591   3.098   5.181   7.187  0.2127 -0.5527  0.0475
20717SOL    HW163592   3.013   5.214   7.158  0.4091  1.4693  1.5313
20717SOL    HW263593   3.161   5.229   7.133  0.4573 -0.6375  0.2591
20718SOL     OW63594   7.924   3.299   8.274  0.3619  0.4509  0.1177
20718SOL    HW163595   7.916   3.227   8.212  0.8177 -0.0030  0.5768
20718SOL    HW263596   7.844   3.294   8.327  0.4429  0.2134  0.2190
20719SOL     OW63597   5.190   4.917  10.737  0.0800  0.1862 -0.9140
20719SOL    HW163598   5.108   4.966  10.747 -0.0082  0.2297 -1.7219
20719SOL    HW263599   5.162   4.825  10.735  0.2390  0.0930  0.5409
20720SOL     OW63600   0.761   1.122   6.874  0.6899  0.9459  0.0275
20720SOL    HW163601   0.673   1.086   6.863  0.2884  1.6635  0.8542
20720SOL    HW263602   0.813   1.078   6.806 -0.3183  0.5860 -0.5308
20721SOL     OW63603   5.029   4.045   9.424  0.1639 -0.1898 -0.2388
20721SOL    HW163604   5.026   3.967   9.369  0.7664  1.2029 -2.3526
20721SOL    HW263605   4.945   4.088   9.409  0.8818  0.9226 -1.2487
20722SOL     OW63606   3.239   7.568  11.683  0.3302  0.8000  0.4640
20722SOL    HW163607   3.206   7.612  11.605  1.5864  1.4587  0.2813
20722SOL    HW263608   3.256   7.478  11.655 -1.8528  0.2350  0.7339
20723SOL     OW63609   3.037   4.466   9.178  0.0138 -0.1353 -0.3839
20723SOL    HW163610   3.127   4.459   9.208  0.2151 -0.7628 -1.1031
20723SOL    HW263611   3.005   4.376   9.175 -0.9466  0.1349  0.7490
20724SOL     OW63612   7.486   4.633   7.007 -0.0780 -0.0678  0.3552
20724SOL    HW163613   7.475   4.551   6.958  0.9972 -0.2916  0.4526
20724SOL    HW263614   7.450   4.614   7.094  0.0784 -0.4163  0.3485
20725SOL     OW63615   2.392   0.768   8.207  0.3063  0.3203 -0.4045
20725SOL    HW163616   2.487   0.773   8.195  0.4546 -1.0088  0.1726
20725SOL    HW263617   2.378   0.702   8.274 -0.9804  1.4489  0.5139
20726SOL     OW63618   7.030   6.993   5.064 -0.0404  0.4310  0.2608
20726SOL    HW163619   7.115   7.025   5.034 -0.0359 -0.7648 -1.1467
20726SOL    HW263620   6.970   7.065   5.047  0.4585  0.7773 -0.0686
20727SOL     OW63621   3.924   1.237   8.507 -0.2592 -0.8266  0.2047
20727SOL    HW163622   3.835   1.272   8.510 -0.1723 -0.5162 -0.7240
20727SOL    HW263623   3.911   1.142   8.498 -0.4878 -1.0712  2.4000
20728SOL     OW63624   3.140   4.097   8.705  0.4104 -0.4723 -0.5288
20728SOL    HW163625   3.139   4.009   8.670  0.2532 -1.1213  1.0263
20728SOL    HW263626   3.054   4.108   8.746  1.6086 -0.9443  2.3576
20729SOL     OW63627   6.341   6.279   6.637  0.4851  0.0440  0.0209
20729SOL    HW163628   6.370   6.203   6.687  0.5615  0.9332  1.3895
20729SOL    HW263629   6.277   6.322   6.693 -0.8187  0.0962 -1.4432
20730SOL     OW63630   7.703   6.015   2.736  0.1071 -0.3840 -0.8408
20730SOL    HW163631   7.628   6.074   2.723  0.0859 -0.0348  0.6948
20730SOL    HW263632   7.694   5.950   2.666 -1.5361 -0.2460 -0.8003
20731SOL     OW63633   5.787   2.973   2.082 -0.0477 -0.5107 -0.1898
20731SOL    HW163634   5.711   2.917   2.080 -0.8472  0.4508  1.2863
20731SOL    HW263635   5.757   3.056   2.046  0.2696 -0.1240  0.4007
20732SOL     OW63636   6.408   5.131   7.423  0.3011 -0.1817  0.0021
20732SOL    HW163637   6.421   5.043   7.387  0.3225  0.0670 -0.6203
20732SOL    HW263638   6.313   5.139   7.433  0.3729 -0.7512  1.3155
20733SOL     OW63639   4.784   3.690  10.916  0.7901  0.0314  0.4006
20733SOL    HW163640   4.727   3.762  10.942  1.3960  0.2816  1.0749
20733SOL    HW263641   4.779   3.628  10.989 -1.5174 -1.7433 -1.1303
20734SOL     OW63642   6.799   5.915  10.447  0.3096  0.2599 -0.2415
20734SOL    HW163643   6.799   5.836  10.501 -1.2036  0.9084  0.7726
20734SOL    HW263644   6.802   5.882  10.357 -1.0896 -1.0099  0.1311
20735SOL     OW63645   1.203   1.394   0.830 -0.5680 -0.8469 -0.0467
20735SOL    HW163646   1.240   1.344   0.903  0.5567  2.0310  1.5169
20735SOL    HW263647   1.247   1.360   0.753  1.1936 -1.3360  1.1132
20736SOL     OW63648   6.692   4.646   2.143 -0.7463 -0.5126 -0.6092
20736SOL    HW163649   6.692   4.721   2.203 -0.6115 -0.5565 -0.5519
20736SOL    HW263650   6.602   4.614   2.145 -1.2555  0.7430 -2.0253
20737SOL     OW63651   4.945   7.426   3.351 -0.1057  0.6132 -0.3385
20737SOL    HW163652   4.889   7.460   3.281 -1.0424  2.4162  1.1919
20737SOL    HW263653   4.899   7.349   3.385 -0.1108  0.2873 -1.0784
20738SOL     OW63654   4.726   1.739   8.023 -0.4841 -0.3236 -0.1618
20738SOL    HW163655   4.763   1.702   8.103  0.8741  0.3714 -0.4442
20738SOL    HW263656   4.665   1.807   8.054  0.7605  0.6267  0.3152
20739SOL     OW63657   6.899   5.389   8.789  0.6589  0.4474 -0.1794
20739SOL    HW163658   6.851   5.396   8.872  0.0257  0.9679 -0.5741
20739SOL    HW263659   6.849   5.326   8.737  1.4555 -0.4276  0.0866
20740SOL     OW63660   5.460   3.178   5.267  0.3422  0.4764 -0.0321
20740SOL    HW163661   5.413   3.163   5.185  0.2702  2.4832 -0.4280
20740SOL    HW263662   5.511   3.099   5.281 -1.1185 -0.6926 -0.9945
20741SOL     OW63663   1.623   4.243   1.894 -0.0363  0.0194 -0.6801
20741SOL    HW163664   1.549   4.303   1.906 -0.0604 -0.1831  0.3287
20741SOL    HW263665   1.585   4.166   1.852 -0.3625  0.0126 -0.3836
20742SOL     OW63666   0.179   1.393   8.214 -0.0181 -0.0678  0.4009
20742SOL    HW163667   0.207   1.306   8.187 -0.3194 -0.5160  1.4782
20742SOL    HW263668   0.259   1.434   8.247  0.3183  0.4250 -0.9555
20743SOL     OW63669   0.936   3.898   5.586  0.2945 -0.0621  0.1771
20743SOL    HW163670   0.891   3.923   5.505  0.6671 -0.6285 -0.2192
20743SOL    HW263671   0.920   3.970   5.646  1.1680  1.0228 -0.8495
20744SOL     OW63672   5.633   2.804   7.485 -0.0138 -0.7921 -0.3530
20744SOL    HW163673   5.653   2.749   7.409  0.9287 -0.5762 -0.2727
20744SOL    HW263674   5.606   2.741   7.553  2.5419 -1.3674  0.2290
20745SOL     OW63675   6.812   7.204   5.079 -0.2027  0.2629  0.3675
20745SOL    HW163676   6.808   7.290   5.121  1.0492  1.4433 -1.7580
20745SOL    HW263677   6.741   7.205   5.015  0.4295  0.1279 -0.3503
20746SOL     OW63678   4.623   6.918   8.150 -0.0109  0.1452 -0.0401
20746SOL    HW163679   4.661   6.986   8.206 -0.2947 -0.9049  1.5052
20746SOL    HW263680   4.546   6.958   8.111  0.1033  0.8596  0.4583
20747SOL     OW63681   2.284   3.829   5.201  0.0649 -0.1922  0.7860
20747SOL    HW163682   2.292   3.923   5.217 -0.1456  0.6170 -2.8918
20747SOL    HW263683   2.202   3.804   5.242  0.2891  1.1132  2.1125
20748SOL     OW63684   3.421   6.735   7.160 -0.1340 -0.6460  0.1923
20748SOL    HW163685   3.346   6.736   7.220  1.5155  3.3015  2.5923
20748SOL    HW263686   3.401   6.803   7.095 -0.1739 -2.1895 -1.4885
20749SOL     OW63687   7.108   2.488  11.408  0.5781  0.4870 -0.9427
20749SOL    HW163688   7.112   2.396  11.435  0.5260  0.1165 -2.1462
20749SOL    HW263689   7.192   2.504  11.365  0.6117  1.0324 -0.6843
20750SOL     OW63690   1.741   5.927   6.564  0.1412  0.0700 -0.3631
20750SOL    HW163691   1.658   5.975   6.563 -0.3290 -0.6951 -1.7803
20750SOL    HW263692   1.726   5.852   6.506  1.5639 -0.5547  0.0226
20751SOL     OW63693   5.760   5.009   9.782 -0.0791  0.2045  0.9681
20751SOL    HW163694   5.840   4.966   9.755  1.1802  1.1078  2.9852
20751SOL    HW263695   5.782   5.102   9.782 -1.1003  0.4634  1.5805
20752SOL     OW63696   3.554   1.693   8.181 -0.2534 -0.1101 -0.7363
20752SOL    HW163697   3.519   1.754   8.246  2.1807  0.4689  0.1373
20752SOL    HW263698   3.629   1.652   8.224  0.7233 -0.5934 -2.7694
20753SOL     OW63699   6.305   1.092   2.408  0.2407  0.8287 -0.5757
20753SOL    HW163700   6.216   1.126   2.412 -0.0218  0.4763 -2.5216
20753SOL    HW263701   6.315   1.059   2.319  1.8300 -0.4968  0.0196
20754SOL     OW63702   2.538   1.984   1.221  0.2923  0.1061 -0.5301
20754SOL    HW163703   2.608   1.992   1.285 -0.2039  0.6045 -0.0407
20754SOL    HW263704   2.484   2.062   1.234  1.5118  1.5385 -3.2130
20755SOL     OW63705   7.483   7.729   6.068  0.0858  0.2490 -0.4528
20755SOL    HW163706   7.458   7.750   6.158  0.2870  0.8216 -0.5260
20755SOL    HW263707   7.412   7.765   6.015 -0.5660 -1.0022 -0.4772
20756SOL     OW63708   2.227   4.704   0.245  0.4522 -0.0766  0.0836
20756SOL    HW163709   2.229   4.725   0.339  0.0747 -0.6885  0.2369
20756SOL    HW263710   2.277   4.622   0.238  0.2907 -0.1534 -0.2126
20757SOL     OW63711   6.475   0.265   1.456  0.1560  0.5169  0.0676
20757SOL    HW163712   6.529   0.274   1.377  0.6512  3.0575  0.5984
20757SOL    HW263713   6.394   0.312   1.436  0.2748  1.1629  1.0326
20758SOL     OW63714   7.383   1.926  11.517 -0.0867  0.4866  0.0014
20758SOL    HW163715   7.381   2.002  11.458 -1.3964 -0.2011 -0.8899
20758SOL    HW263716   7.424   1.857  11.466  0.7398  0.4643  0.6751
20759SOL     OW63717   5.822   1.091   6.372 -0.0439  0.1451  0.0883
20759SOL    HW163718   5.863   1.169   6.336 -0.6097  0.5285  0.2678
20759SOL    HW263719   5.728   1.108   6.367 -0.1659 -0.3888  0.4305
20760SOL     OW63720   6.545   2.236   6.217  0.4418  0.3738  0.1444
20760SOL    HW163721   6.631   2.202   6.191 -1.0702 -1.6538 -2.6665
20760SOL    HW263722   6.495   2.158   6.242 -1.5302  1.0993 -1.3135
20761SOL     OW63723   6.037   0.294   3.056 -0.0807 -0.2568 -0.2783
20761SOL    HW163724   6.118   0.344   3.053  1.0217 -1.8386  1.1528
20761SOL    HW263725   6.034   0.249   2.971 -0.0640  0.6379 -0.7739
20762SOL     OW63726   1.076   6.774   5.497  0.3146  0.4896 -0.0542
20762SOL    HW163727   1.161   6.779   5.541  0.6432 -2.5782 -0.1251
20762SOL    HW263728   1.088   6.822   5.416  2.2615 -0.4512 -0.3763
20763SOL     OW63729   7.378   4.973   2.240  0.0705 -0.5492  0.1850
20763SOL    HW163730   7.445   5.012   2.296 -0.8069  1.5653 -0.1079
20763SOL    HW263731   7.299   4.973   2.293 -0.8680  1.8443 -1.0357
20764SOL     OW63732   6.720   1.966   5.489 -0.4753  0.1507 -0.0151
20764SOL    HW163733   6.658   2.039   5.479 -2.0064 -1.2012 -0.8507
20764SOL    HW263734   6.792   1.988   5.430 -0.8506  1.0554 -0.1582
20765SOL     OW63735   5.249   7.749   0.929  0.1149 -0.1145  0.2844
20765SOL    HW163736   5.156   7.763   0.908 -0.0630 -0.6085  0.7247
20765SOL    HW263737   5.250   7.671   0.984  0.9148 -0.8840 -0.7570
20766SOL     OW63738   1.700   0.047   6.093 -0.4137  0.0577 -0.4950
20766SOL    HW163739   1.642  -0.027   6.074  1.2840 -1.7297  0.7499
20766SOL    HW263740   1.788   0.014   6.072  0.2675  2.3534 -1.4984
20767SOL     OW63741   5.368   6.056   4.108 -0.6632 -0.3547  0.2591
20767SOL    HW163742   5.449   6.104   4.126 -1.4056  0.5000  1.4281
20767SOL    HW263743   5.375   6.033   4.015  0.0461  1.4095 -0.1669
20768SOL     OW63744   0.964   2.826   9.322  0.3345  0.5329 -0.1225
20768SOL    HW163745   1.060   2.826   9.312  0.2421 -2.1257 -2.3932
20768SOL    HW263746   0.932   2.860   9.239 -0.6014 -2.2930 -1.0324
20769SOL     OW63747   7.126   3.608   1.403 -0.0464  0.1776 -0.1937
20769SOL    HW163748   7.180   3.675   1.361 -1.0383  0.5540 -0.8926
20769SOL    HW263749   7.090   3.558   1.330  0.5065 -0.9990  0.3114
20770SOL     OW63750   4.844   3.928   6.848  0.1661  0.6471  0.2618
20770SOL    HW163751   4.847   3.879   6.930  3.0075 -0.4736 -0.4121
20770SOL    HW263752   4.838   3.861   6.780 -0.2870  1.4756 -0.5316
20771SOL     OW63753   0.785   6.115  12.439  0.6863 -0.5222 -0.1486
20771SOL    HW163754   0.703   6.164  12.448 -0.5035 -2.2358 -1.0813
20771SOL    HW263755   0.792   6.065  12.521  1.0925  0.0198  0.1529
20772SOL     OW63756   6.719   0.003   4.205 -0.0442 -0.5098 -0.6773
20772SOL    HW163757   6.758   0.037   4.125  0.7519  1.0571  0.3472
20772SOL    HW263758   6.715  -0.092   4.191  2.4029 -0.5404 -1.5767
20773SOL     OW63759   1.569   6.202   4.016  0.3963 -0.5354  0.2024
20773SOL    HW163760   1.599   6.168   3.932 -1.4617 -0.6668 -0.4503
20773SOL    HW263761   1.613   6.286   4.025  2.1926 -1.4132  0.0984
20774SOL     OW63762   5.542   7.377  10.059 -0.5651 -0.0610 -0.4057
20774SOL    HW163763   5.633   7.401  10.075 -0.5709 -0.6663  0.6030
20774SOL    HW263764   5.495   7.460  10.053  0.0030  0.2430 -0.6666
20775SOL     OW63765   7.443   2.239   3.531 -0.2076 -0.5733 -0.2676
20775SOL    HW163766   7.531   2.201   3.527 -0.2863 -0.7252 -3.5188
20775SOL    HW263767   7.386   2.168   3.502 -1.1966  0.0348  0.1711
20776SOL     OW63768   4.308   4.754   9.917  0.2114 -0.3754  0.1013
20776SOL    HW163769   4.330   4.732  10.008  1.1082  0.4902  0.1141
20776SOL    HW263770   4.295   4.669   9.874  1.1304 -0.8560  0.7254
20777SOL     OW63771   6.040   7.629   6.235 -0.0438  0.3758 -0.5256
20777SOL    HW163772   5.969   7.630   6.171  1.2368  2.5564 -2.0509
20777SOL    HW263773   5.997   7.611   6.318 -1.9961 -0.8990 -1.7126
20778SOL     OW63774   5.821   6.223   8.481 -0.2972 -0.7119  0.0442
20778SOL    HW163775   5.794   6.181   8.399 -1.1945 -1.2403  0.5900
20778SOL    HW263776   5.894   6.279   8.456 -1.9449  0.8469 -1.5390
20779SOL     OW63777   6.506   4.281   0.860  0.4399 -0.9698 -0.0563
20779SOL    HW163778   6.437   4.226   0.823 -0.9023  1.1961 -0.9855
20779SOL    HW263779   6.537   4.334   0.787  0.6027  0.5379  1.0440
20780SOL     OW63780   3.740   3.837   1.403 -0.1192  0.4675  0.5542
20780SOL    HW163781   3.690   3.854   1.324  0.2657 -1.6780 -0.2115
20780SOL    HW263782   3.831   3.857   1.379 -0.2509  2.0036  1.1982
20781SOL     OW63783   2.122   7.389   8.596 -1.2886  0.1545 -0.1759
20781SOL    HW163784   2.151   7.355   8.512 -1.3640  0.3549 -0.2836
20781SOL    HW263785   2.199   7.384   8.652 -1.5979 -1.2674  0.1441
20782SOL     OW63786   6.691   2.675   0.689 -0.0006 -0.1871  0.3565
20782SOL    HW163787   6.746   2.665   0.767 -0.7848  0.1757  0.9751
20782SOL    HW263788   6.662   2.767   0.692 -1.5047 -0.6389  0.6551
20783SOL     OW63789   5.026   6.025   5.395  0.1843 -0.4299  0.4103
20783SOL    HW163790   5.115   6.031   5.361  0.7131 -1.9562  1.4191
20783SOL    HW263791   4.979   5.973   5.329  0.5066 -1.1209  0.7226
20784SOL     OW63792   3.801   3.358  12.431 -0.2447  0.6589  0.2171
20784SOL    HW163793   3.826   3.270  12.403  0.8315 -0.1121  3.1934
20784SOL    HW263794   3.845   3.416  12.369 -0.9055 -0.8427 -1.7644
20785SOL     OW63795   1.501   3.984   8.249  0.2303  0.1189 -0.0697
20785SOL    HW163796   1.471   3.906   8.202  1.0610  0.2662 -0.8794
20785SOL    HW263797   1.421   4.033   8.268 -0.5901 -1.9856  2.5191
20786SOL     OW63798   0.405   4.321   4.528 -0.5981 -0.3292 -0.1399
20786SOL    HW163799   0.381   4.403   4.572  0.9944  0.3207 -0.4217
20786SOL    HW263800   0.488   4.341   4.484 -1.1465 -1.5285 -1.8343
20787SOL     OW63801   4.551   6.383  10.484  0.2160  0.2213 -0.0466
20787SOL    HW163802   4.540   6.366  10.578 -1.1805 -0.3686 -0.2937
20787SOL    HW263803   4.522   6.473  10.472 -2.1828 -0.5094 -0.2787
20788SOL     OW63804   3.887   4.917   9.422  0.7658  0.3893 -0.1852
20788SOL    HW163805   3.964   4.974   9.426  1.2460 -0.3100  1.6995
20788SOL    HW263806   3.923   4.828   9.429 -0.2051  0.0691  1.1748
20789SOL     OW63807   3.638   3.561  11.097  0.0453 -0.1783 -0.2978
20789SOL    HW163808   3.578   3.498  11.059  0.2863 -0.3340 -0.4247
20789SOL    HW263809   3.591   3.598  11.172  0.2531 -1.1727  0.3339
20790SOL     OW63810   2.843   0.400   2.614  0.4008  0.4487  0.1048
20790SOL    HW163811   2.895   0.451   2.675  1.0874  0.8442 -0.8064
20790SOL    HW263812   2.905   0.341   2.572 -0.0749  0.1366 -0.1757
20791SOL     OW63813   3.396   0.451   9.804  0.0664 -0.1829  0.2390
20791SOL    HW163814   3.484   0.431   9.834  0.8307  0.1886 -1.6592
20791SOL    HW263815   3.407   0.520   9.738 -1.6515  0.0049  0.0956
20792SOL     OW63816   6.273   3.705  11.912 -0.1861 -0.5494  0.0228
20792SOL    HW163817   6.187   3.706  11.953 -0.7639 -0.0711 -1.1346
20792SOL    HW263818   6.285   3.614  11.884  0.0155 -0.7758  0.8206
20793SOL     OW63819   4.731   4.248   0.453 -0.5940 -0.1002 -0.0245
20793SOL    HW163820   4.638   4.232   0.467 -0.2796 -0.1504  2.5575
20793SOL    HW263821   4.751   4.323   0.509  0.8975 -0.0017 -0.6442
20794SOL     OW63822   6.818   5.216   7.403 -0.3962  0.2722  0.0208
20794SOL    HW163823   6.906   5.247   7.425 -0.5547 -0.8873  2.7194
20794SOL    HW263824   6.827   5.175   7.317  1.8052 -0.1692  0.4103
20795SOL     OW63825   7.883   2.523   0.936  0.2365 -0.2221  0.3718
20795SOL    HW163826   7.954   2.552   0.993  0.3783 -3.5320  2.0757
20795SOL    HW263827   7.927   2.485   0.860  0.0801  1.7734 -0.8060
20796SOL     OW63828   6.419   7.824  10.767  0.0509  0.0745  0.4927
20796SOL    HW163829   6.441   7.893  10.829 -1.2405  0.4550  0.5554
20796SOL    HW263830   6.399   7.870  10.685 -0.8441 -0.2025  0.5427
20797SOL     OW63831   1.660   5.908   3.885 -0.6067  0.2072 -0.0859
20797SOL    HW163832   1.724   5.960   3.934 -0.7937  0.4173 -0.0627
20797SOL    HW263833   1.661   5.945   3.797 -1.1111  0.5859  0.0641
20798SOL     OW63834   3.913   0.923   5.425 -0.0914 -0.0121  0.1736
20798SOL    HW163835   3.961   0.842   5.440 -0.9746 -0.4600  0.6740
20798SOL    HW263836   3.980   0.988   5.405  0.5155 -1.3470 -2.5767
20799SOL     OW63837   7.783   7.846   2.345  0.4206  0.1632 -0.6686
20799SOL    HW163838   7.761   7.939   2.352  2.0636  0.4775  0.7351
20799SOL    HW263839   7.757   7.808   2.429 -0.6339 -0.7711 -1.3820
20800SOL     OW63840   1.135   0.036  11.493 -0.0834 -0.7237 -0.1619
20800SOL    HW163841   1.217   0.002  11.457  0.1804  1.2557 -1.5687
20800SOL    HW263842   1.083   0.060  11.417 -0.8334  0.6598  0.7395
20801SOL     OW63843   4.597   4.093   9.180  0.2202  0.0290 -0.3618
20801SOL    HW163844   4.549   4.120   9.102  0.5782  1.8409  0.0112
20801SOL    HW263845   4.529   4.073   9.244 -0.0550  0.0984 -0.6314
20802SOL     OW63846   2.355   7.597   4.787  0.0896  0.5803 -0.8412
20802SOL    HW163847   2.330   7.671   4.842 -1.6247  0.0462 -0.8627
20802SOL    HW263848   2.373   7.526   4.849  1.8930  1.0023 -0.8111
20803SOL     OW63849   3.703   5.288   0.226  0.4668 -0.4014 -0.0085
20803SOL    HW163850   3.686   5.206   0.180 -1.0635 -0.4963  0.6848
20803SOL    HW263851   3.699   5.355   0.158 -0.2247 -0.6974 -0.2690
20804SOL     OW63852   6.687   7.211  10.189 -0.2890  0.3573  0.0112
20804SOL    HW163853   6.766   7.256  10.221 -0.1650 -0.0609  0.3146
20804SOL    HW263854   6.720   7.147  10.126 -0.2950 -0.3715  0.7344
20805SOL     OW63855   1.720   1.879  10.586 -0.1947  0.6091 -0.7341
20805SOL    HW163856   1.713   1.826  10.508  0.2301 -1.1958  0.3888
20805SOL    HW263857   1.711   1.817  10.659 -0.3928  2.1784  0.6530
20806SOL     OW63858   6.582   2.654   2.480 -0.3596 -0.3987 -0.0612
20806SOL    HW163859   6.491   2.624   2.473 -0.9787  1.0647  1.0792
20806SOL    HW263860   6.603   2.644   2.573 -0.6149  2.5074  0.4005
20807SOL     OW63861   2.582   6.868   3.694 -0.0829 -0.2848 -0.0895
20807SOL    HW163862   2.616   6.783   3.723  2.6542  0.8242  0.2497
20807SOL    HW263863   2.618   6.931   3.756 -0.7295  1.2893 -1.2463
20808SOL     OW63864   6.223   0.035   0.716  0.4774 -0.0282 -0.2574
20808SOL    HW163865   6.210   0.055   0.808 -0.2621 -1.4705 -0.0261
20808SOL    HW263866   6.295  -0.027   0.715  0.1150 -0.4493 -0.5947
20809SOL     OW63867   4.434   3.949   1.250 -0.4405  0.0670 -0.0991
20809SOL    HW163868   4.474   3.891   1.314 -0.9198 -0.4496 -0.2584
20809SOL    HW263869   4.488   3.941   1.172  0.0578  0.5833  0.1838
20810SOL     OW63870   0.781   1.315   8.343  0.2148 -0.0138 -0.4397
20810SOL    HW163871   0.705   1.264   8.372 -1.0812  0.9968 -1.9030
20810SOL    HW263872   0.829   1.335   8.423 -1.0273 -0.7226  0.5142
20811SOL     OW63873   5.616   1.143  11.723 -0.1086 -0.0664  0.8844
20811SOL    HW163874   5.674   1.199  11.775  2.3478 -1.5921 -0.0552
20811SOL    HW263875   5.557   1.204  11.679  1.7937  1.7301  0.6825
20812SOL     OW63876   5.105   0.407   9.209  0.1140  0.1535 -0.1134
20812SOL    HW163877   5.093   0.323   9.254 -1.2862  0.6353  0.4900
20812SOL    HW263878   5.135   0.466   9.278 -1.4617  0.7506  0.1085
20813SOL     OW63879   4.385   6.526   5.422  0.3381  0.5908 -0.2420
20813SOL    HW163880   4.393   6.546   5.515 -1.1895 -0.3248  0.1305
20813SOL    HW263881   4.361   6.609   5.382  1.3986  1.0775  0.1127
20814SOL     OW63882   5.076   0.067   4.441  0.2039 -0.0569 -0.0277
20814SOL    HW163883   5.005   0.070   4.376  0.3369 -0.5398 -0.2013
20814SOL    HW263884   5.106  -0.024   4.439 -0.4615 -0.3434  1.4244
20815SOL     OW63885   6.234   2.318   9.630 -0.2129 -0.0653  0.5135
20815SOL    HW163886   6.289   2.241   9.614 -0.9202 -0.4730 -0.0117
20815SOL    HW263887   6.166   2.313   9.563 -1.4428 -0.0826  1.7334
20816SOL     OW63888   0.228   2.736   3.119  0.6978 -0.3223 -0.1566
20816SOL    HW163889   0.188   2.802   3.062  0.7873 -0.5516 -0.4919
20816SOL    HW263890   0.267   2.786   3.190  2.4941  0.1868 -1.4160
20817SOL     OW63891   0.492   5.463  10.673  0.3372  0.2121  0.5988
20817SOL    HW163892   0.491   5.520  10.596  3.8871  1.1303  1.0841
20817SOL    HW263893   0.430   5.504  10.734  0.2527  1.5542 -0.3566
20818SOL     OW63894   4.808   3.625  11.252  0.0873 -0.3718 -0.1161
20818SOL    HW163895   4.834   3.534  11.243 -0.5201 -0.8710  2.4805
20818SOL    HW263896   4.889   3.672  11.269  0.1202 -0.8974  1.3100
20819SOL     OW63897   7.791   2.729   4.428  0.2084 -0.2493 -0.0422
20819SOL    HW163898   7.771   2.648   4.382 -1.3828  1.2743 -2.1892
20819SOL    HW263899   7.887   2.737   4.422  0.1244 -0.3902 -2.7392
20820SOL     OW63900   2.619   5.994   0.337 -0.3764 -0.2794  0.3900
20820SOL    HW163901   2.612   6.053   0.412 -1.0260  0.4892 -0.2500
20820SOL    HW263902   2.671   5.920   0.369  0.5412  0.6741  1.1858
20821SOL     OW63903   4.443   1.927  10.061 -0.0437 -0.8390  0.5120
20821SOL    HW163904   4.459   1.907   9.969 -0.1653 -0.4597  0.4052
20821SOL    HW263905   4.526   1.962  10.093 -0.2835 -0.0257  0.2792
20822SOL     OW63906   7.530   4.964   8.720  0.2403 -0.3777 -0.1420
20822SOL    HW163907   7.576   5.019   8.656 -0.4131  0.0149 -0.2844
20822SOL    HW263908   7.448   4.941   8.677  0.1527 -0.7844  0.2416
20823SOL     OW63909   0.545   0.617   6.900  0.2668  0.2626  0.2091
20823SOL    HW163910   0.597   0.668   6.962  1.3888  1.3922 -1.5615
20823SOL    HW263911   0.601   0.608   6.823 -1.3006 -0.5181 -0.9012
20824SOL     OW63912   4.956   4.302   3.823 -0.0081 -0.2943  0.3565
20824SOL    HW163913   5.038   4.326   3.868 -0.0648  2.1290 -0.6625
20824SOL    HW263914   4.962   4.346   3.739 -1.9053 -0.9913 -0.1799
20825SOL     OW63915   5.845   7.814   1.466 -0.1143  0.6655  0.0825
20825SOL    HW163916   5.904   7.758   1.415 -1.0078 -0.0175 -0.2212
20825SOL    HW263917   5.841   7.896   1.417 -1.9046 -0.3928 -1.6430
20826SOL     OW63918   1.819   4.513  12.436 -0.4955  0.1855 -0.5455
20826SOL    HW163919   1.856   4.427  12.453 -1.5645 -0.3854 -1.0540
20826SOL    HW263920   1.768   4.533  12.515  0.7928  0.9436  0.1276
20827SOL     OW63921   7.536   2.482   8.111 -0.3345 -0.2675  0.0027
20827SOL    HW163922   7.504   2.443   8.030 -0.6082 -0.6128  0.2744
20827SOL    HW263923   7.624   2.445   8.122 -0.0381  0.2818 -0.4723
20828SOL     OW63924   4.935   5.219  10.804 -0.0972 -0.1524 -0.3973
20828SOL    HW163925   4.879   5.172  10.742 -0.1240  0.5831 -0.9399
20828SOL    HW263926   4.911   5.311  10.793 -0.9884 -0.0925  1.5669
20829SOL     OW63927   2.450   1.483   5.127  0.0367  0.5546 -0.4216
20829SOL    HW163928   2.389   1.426   5.080  1.8203 -1.6610 -0.2537
20829SOL    HW263929   2.536   1.441   5.116  1.0631  1.8371  1.8739
20830SOL     OW63930   6.130   0.283   2.534 -0.0747 -0.3640 -0.2083
20830SOL    HW163931   6.180   0.330   2.468  0.7784 -1.9463 -0.7421
20830SOL    HW263932   6.194   0.226   2.577 -0.7610  0.0666  1.4668
20831SOL     OW63933   2.064   4.937  10.595  0.3108  0.4026 -0.0605
20831SOL    HW163934   2.037   5.022  10.628 -0.5563  0.0530  0.1757
20831SOL    HW263935   2.140   4.955  10.539  2.1938  0.9383  2.5199
20832SOL     OW63936   5.391   1.144   6.552 -0.0543 -0.3075  0.6055
20832SOL    HW163937   5.453   1.152   6.625 -0.0214  0.2848  0.5234
20832SOL    HW263938   5.311   1.110   6.592 -0.4425  1.1741  1.1698
20833SOL     OW63939   6.232   0.528   7.771  0.1042  0.4377  0.3906
20833SOL    HW163940   6.195   0.470   7.838  1.7349 -1.4203 -0.2258
20833SOL    HW263941   6.252   0.609   7.817 -3.1509  0.9927  1.0792
20834SOL     OW63942   0.682   7.576   9.723 -0.3048  0.0170  0.3002
20834SOL    HW163943   0.627   7.650   9.696  0.8541  1.3164  1.3816
20834SOL    HW263944   0.756   7.578   9.662  0.9119  1.2542  1.7200
20835SOL     OW63945   0.222   4.582   7.810  0.1064 -0.3966 -0.2029
20835SOL    HW163946   0.140   4.630   7.826 -1.5180 -2.2719 -2.1627
20835SOL    HW263947   0.235   4.531   7.889  1.0563  2.0424  1.3119
20836SOL     OW63948   2.451   1.448   0.198 -0.3452  0.5035 -0.0953
20836SOL    HW163949   2.421   1.362   0.167  1.3204 -0.3762  0.5822
20836SOL    HW263950   2.385   1.509   0.166 -2.0610 -1.1253  0.1426
20837SOL     OW63951   0.272   4.511   3.112 -0.0909 -0.0826 -0.4769
20837SOL    HW163952   0.301   4.527   3.022  0.5928  1.2174 -0.0579
20837SOL    HW263953   0.253   4.417   3.115 -0.0572 -0.1630 -1.9498
20838SOL     OW63954   3.618   6.232   1.050 -0.0623 -0.1311 -0.3704
20838SOL    HW163955   3.612   6.272   0.964  1.4041 -2.1616 -1.5173
20838SOL    HW263956   3.649   6.302   1.107  0.1981  0.9227 -1.7487
20839SOL     OW63957   1.643   5.146  11.217 -0.2806 -0.0327  0.3785
20839SOL    HW163958   1.607   5.146  11.306 -0.5457 -0.0637  0.2726
20839SOL    HW263959   1.619   5.061  11.181  1.0469 -0.5916  0.7590
20840SOL     OW63960   7.136   1.027   4.173 -0.1796 -0.5826  0.0201
20840SOL    HW163961   7.084   1.042   4.252  0.9488 -1.2828  0.9310
20840SOL    HW263962   7.097   0.949   4.134 -1.3142  0.2914 -0.6317
20841SOL     OW63963   6.926   6.144  10.504  0.2219 -0.3899 -0.7784
20841SOL    HW163964   7.007   6.129  10.551  0.0022  0.0778 -0.2351
20841SOL    HW263965   6.879   6.060  10.508  0.8356 -0.7663 -1.4154
20842SOL     OW63966   7.019   3.267   3.068 -0.3463 -0.0575 -0.4462
20842SOL    HW163967   6.976   3.183   3.084 -2.3934  1.1518  0.8164
20842SOL    HW263968   7.011   3.280   2.974 -2.6113 -0.0032 -0.2940
20843SOL     OW63969   3.777   7.309   9.255 -0.1234 -0.1057 -0.0883
20843SOL    HW163970   3.847   7.275   9.311 -0.2841 -0.2937 -0.0021
20843SOL    HW263971   3.819   7.378   9.204 -0.2877  1.0301  1.2523
20844SOL     OW63972   2.564   7.637   9.741  0.2431  0.2783 -0.6524
20844SOL    HW163973   2.469   7.647   9.735  0.0512 -0.6759  0.5070
20844SOL    HW263974   2.583   7.561   9.686  0.1039 -0.5842  0.4695
20845SOL     OW63975   2.503   6.610  10.275  0.1873 -0.0781  0.3806
20845SOL    HW163976   2.537   6.589  10.362  2.6652  1.0937 -0.2009
20845SOL    HW263977   2.427   6.553  10.264 -0.1570 -0.3187  3.2552
20846SOL     OW63978   0.969   7.270   5.768 -0.1078  0.1878  0.4813
20846SOL    HW163979   1.041   7.312   5.721 -1.0536  1.7283  0.3330
20846SOL    HW263980   1.011   7.201   5.820  1.2578  0.0403 -0.7593
20847SOL     OW63981   7.781   4.207   6.427 -0.2748 -0.8111 -0.1831
20847SOL    HW163982   7.749   4.118   6.443 -0.2952 -0.8938 -0.6694
20847SOL    HW263983   7.726   4.240   6.355 -0.5770 -0.2340  0.2996
20848SOL     OW63984   4.630   1.603   1.921  0.2499  0.1664 -0.4028
20848SOL    HW163985   4.545   1.640   1.896  0.1960 -1.0852 -2.3172
20848SOL    HW263986   4.624   1.511   1.896  1.2896 -0.5794  1.8451
20849SOL     OW63987   7.390   6.682   6.959 -0.1064 -0.3287 -0.4526
20849SOL    HW163988   7.347   6.597   6.958 -0.8378  0.0356 -0.7838
20849SOL    HW263989   7.318   6.745   6.960  0.4225  0.2801  0.9386
20850SOL     OW63990   6.683   4.936   6.730  0.1016  0.3457  0.6664
20850SOL    HW163991   6.772   4.921   6.761  0.2266  1.8479  1.0856
20850SOL    HW263992   6.628   4.922   6.808 -0.3257 -2.7190 -0.0308
20851SOL     OW63993   5.067   5.867  10.832 -0.2592  0.2635 -0.1386
20851SOL    HW163994   5.057   5.793  10.892  0.8398 -0.5224 -0.8838
20851SOL    HW263995   5.109   5.829  10.754  1.6288  1.9251  0.0066
20852SOL     OW63996   5.227   7.667   5.754  0.2499 -0.6882  0.0468
20852SOL    HW163997   5.270   7.601   5.807  0.1901 -0.5546  0.2606
20852SOL    HW263998   5.262   7.750   5.785 -0.4068 -0.5528  0.4501
20853SOL     OW63999   0.598   2.903   3.152 -0.0632  0.2847 -0.6143
20853SOL    HW164000   0.640   2.963   3.091  0.3113  0.2949 -0.3537
20853SOL    HW264001   0.596   2.819   3.106  3.8206 -0.7769  0.6984
20854SOL     OW64002   4.719   6.375   3.766  0.1324  0.4335 -0.3409
20854SOL    HW164003   4.642   6.361   3.821  0.5289 -1.1025 -0.1270
20854SOL    HW264004   4.683   6.405   3.682 -0.6017  0.8781  0.1202
20855SOL     OW64005   5.797   0.203   8.907  0.0715 -0.1702 -0.8834
20855SOL    HW164006   5.724   0.200   8.845 -2.9981 -2.2824  2.4022
20855SOL    HW264007   5.807   0.112   8.936  1.6967  0.6061  1.2684
20856SOL     OW64008   2.675   0.959   7.280  0.1006  0.3761  0.6952
20856SOL    HW164009   2.677   0.863   7.282 -0.9040  0.3611  1.6198
20856SOL    HW264010   2.747   0.983   7.221  0.2561 -0.9449  0.3161
20857SOL     OW64011   1.033   0.907  10.922 -0.2054 -0.2974  0.0982
20857SOL    HW164012   1.013   0.936  11.011 -0.9118 -1.9809  0.5454
20857SOL    HW264013   0.953   0.862  10.893  0.1120 -0.0236 -1.2853
20858SOL     OW64014   1.889   1.933   7.562 -0.0907  0.6874  0.1524
20858SOL    HW164015   1.920   1.867   7.625 -0.3096  1.1537  0.7583
20858SOL    HW264016   1.936   2.013   7.586  0.2352  0.7465 -0.6293
20859SOL     OW64017   3.748   4.031  11.910 -0.8032  0.3113 -0.6364
20859SOL    HW164018   3.724   4.121  11.890 -0.6583  0.1960 -1.3527
20859SOL    HW264019   3.665   3.983  11.912 -0.8199  0.3257 -0.9623
20860SOL     OW64020   7.732   5.883  10.162 -0.2772 -0.1226  0.1970
20860SOL    HW164021   7.702   5.866  10.072 -0.7892  0.5279  0.2354
20860SOL    HW264022   7.678   5.957  10.191  1.0363  0.7575  0.4548
20861SOL     OW64023   1.019   6.837   1.669  0.6117 -0.3187 -0.3886
20861SOL    HW164024   1.111   6.821   1.688 -0.2268 -2.1886  2.7925
20861SOL    HW264025   0.990   6.759   1.622 -0.1351 -1.7278  2.1902
20862SOL     OW64026   0.707   0.530   2.449  0.0703 -0.1800 -0.2725
20862SOL    HW164027   0.738   0.572   2.530 -0.8318 -0.2452  0.1196
20862SOL    HW264028   0.697   0.602   2.387 -0.3832  0.0370  0.0477
20863SOL     OW64029   0.754   3.737  10.352 -0.1445  0.5692 -0.1116
20863SOL    HW164030   0.669   3.698  10.371  0.7210 -0.2303  2.5272
20863SOL    HW264031   0.817   3.677  10.393  1.6821  1.2864 -1.7562
20864SOL     OW64032   0.181   7.227  11.531  0.3351 -0.4911  0.4690
20864SOL    HW164033   0.234   7.297  11.494 -0.7838  0.5322  0.7213
20864SOL    HW264034   0.242   7.156  11.548  0.9215 -1.1785 -3.5884
20865SOL     OW64035   4.062   5.464   4.214 -0.4492 -0.3402  0.7266
20865SOL    HW164036   4.091   5.523   4.145 -0.8632  0.8203  1.5225
20865SOL    HW264037   4.116   5.486   4.290  0.7554 -2.3334  0.5312
20866SOL     OW64038   2.387   4.689   4.790 -0.1583  0.3435  0.1999
20866SOL    HW164039   2.450   4.760   4.805  2.2902 -2.1265  3.1185
20866SOL    HW264040   2.422   4.641   4.715  0.3419  0.1316  0.5608
20867SOL     OW64041   6.754   3.472   3.462  0.4172  0.4067 -0.2017
20867SOL    HW164042   6.834   3.520   3.485  0.8690 -0.2289 -0.4125
20867SOL    HW264043   6.708   3.530   3.402 -0.0021  1.4037  1.0487
20868SOL     OW64044   6.783   1.431  11.666  0.2514 -0.3052  0.1116
20868SOL    HW164045   6.855   1.369  11.651  0.1503 -0.0528 -1.5871
20868SOL    HW264046   6.827   1.513  11.690  0.4751 -0.4530  0.2135
20869SOL     OW64047   6.915   7.909   3.109  0.5706 -0.0845 -0.3288
20869SOL    HW164048   6.922   7.956   3.026  1.0123 -2.1789 -1.5687
20869SOL    HW264049   6.996   7.858   3.114 -0.9518 -2.7013 -0.4581
20870SOL     OW64050   2.424   1.115   9.590 -0.0193 -0.1206 -0.1537
20870SOL    HW164051   2.491   1.065   9.636  1.2785  1.4149 -0.2853
20870SOL    HW264052   2.391   1.177   9.655 -0.5865 -0.2090 -0.3594
20871SOL     OW64053   0.776   2.061  10.287  0.4722  0.5180  0.4055
20871SOL    HW164054   0.848   2.009  10.321 -0.4066 -1.0475 -0.0133
20871SOL    HW264055   0.812   2.105  10.210  1.4732  1.2400  1.2769
20872SOL     OW64056   5.188   0.359   3.863 -0.1529  0.5894  0.0161
20872SOL    HW164057   5.131   0.403   3.800 -0.7504  1.1428  0.9181
20872SOL    HW264058   5.228   0.430   3.913  1.0571  0.1946 -0.3478
20873SOL     OW64059   5.842   3.051  10.055 -0.1067  0.5360 -0.1389
20873SOL    HW164060   5.880   3.029  10.140  1.8747  0.0444 -1.0776
20873SOL    HW264061   5.778   2.983  10.038  0.9840 -0.5788  0.0753
20874SOL     OW64062   5.492   6.110   8.443 -0.5804 -0.3723  0.4455
20874SOL    HW164063   5.482   6.125   8.349  1.4101 -2.4042 -0.1901
20874SOL    HW264064   5.448   6.027   8.460 -2.1999  0.6566  1.6883
20875SOL     OW64065   0.374   2.155  11.872 -0.0552 -0.2017  0.3415
20875SOL    HW164066   0.412   2.070  11.847  0.1778  0.3345 -1.2644
20875SOL    HW264067   0.318   2.178  11.798  0.1586  1.2087  0.5934
20876SOL     OW64068   5.922   0.379   7.783  0.4492 -0.1146  0.0414
20876SOL    HW164069   5.867   0.387   7.861 -1.4222 -0.2313 -1.1947
20876SOL    HW264070   5.980   0.305   7.802 -2.3952 -2.5624  0.0095
20877SOL     OW64071   7.448   2.782   3.093 -0.5483  0.4620  0.0940
20877SOL    HW164072   7.506   2.855   3.071  0.0322  1.7600  4.7908
20877SOL    HW264073   7.370   2.824   3.132 -1.7359 -1.3850 -0.1707
20878SOL     OW64074   4.481   5.752   5.688 -0.5359  0.3386 -0.2667
20878SOL    HW164075   4.568   5.792   5.691 -0.2442 -0.2537  3.4735
20878SOL    HW264076   4.421   5.826   5.699 -0.3653  0.5048 -0.4512
20879SOL     OW64077   3.834   0.812   0.700  0.2174  0.2688 -0.4656
20879SOL    HW164078   3.902   0.806   0.633  0.5430 -1.1465 -0.0610
20879SOL    HW264079   3.752   0.806   0.652  0.4539 -1.1178 -0.7356
20880SOL     OW64080   1.875   6.238   0.956  0.1744 -0.3024  0.7439
20880SOL    HW164081   1.874   6.328   0.924  2.9105 -0.1831  0.7847
20880SOL    HW264082   1.782   6.214   0.964 -0.7026  3.0577  2.3309
20881SOL     OW64083   3.943   2.241   0.456 -0.3433 -0.7236 -0.1509
20881SOL    HW164084   3.939   2.253   0.551 -1.4223 -0.7468 -0.1907
20881SOL    HW264085   4.035   2.217   0.439  0.2072  0.6436  0.7229
20882SOL     OW64086   0.569   6.254   0.046 -0.1578  0.2003 -0.6623
20882SOL    HW164087   0.540   6.290   0.130  0.8062 -1.7135  0.5287
20882SOL    HW264088   0.488   6.224   0.004 -0.7463  1.8818 -0.8449
20883SOL     OW64089   0.764   3.670  11.939 -0.0330 -0.1318  0.4858
20883SOL    HW164090   0.770   3.675  11.843  0.3551 -1.2348  0.4375
20883SOL    HW264091   0.671   3.657  11.956  0.0914 -1.5916  0.1481
20884SOL     OW64092   7.747   5.712  10.376  0.5316 -0.4741  0.3080
20884SOL    HW164093   7.739   5.773  10.303 -0.3915 -0.0093  0.7778
20884SOL    HW264094   7.836   5.727  10.410  1.7597 -2.1545 -1.9404
20885SOL     OW64095   5.235   7.656   4.736 -0.0867 -0.9936 -0.2681
20885SOL    HW164096   5.161   7.603   4.705 -0.5517  0.1374 -1.1965
20885SOL    HW264097   5.204   7.695   4.818  0.5207 -2.6737  0.7978
20886SOL     OW64098   2.980   2.395   5.649 -0.0693  0.0783 -0.3469
20886SOL    HW164099   2.911   2.329   5.643 -0.1232  0.0269  0.6586
20886SOL    HW264100   2.940   2.469   5.695 -0.2890  1.2239 -2.2939
20887SOL     OW64101   7.838   4.545  11.860 -0.0237 -0.0281  0.4433
20887SOL    HW164102   7.823   4.453  11.882 -1.7955 -0.1568 -1.1106
20887SOL    HW264103   7.931   4.559  11.879  0.4203 -2.2778  0.1807
20888SOL     OW64104   0.700   6.560  10.244 -0.3012  0.2593  0.2048
20888SOL    HW164105   0.779   6.512  10.271 -0.0625  0.7871  0.4619
20888SOL    HW264106   0.731   6.625  10.182 -0.7834 -0.6263 -1.0104
20889SOL     OW64107   2.356   2.893   6.669 -0.0203  0.3522 -0.1333
20889SOL    HW164108   2.261   2.888   6.673 -0.0789  1.7578  0.7327
20889SOL    HW264109   2.385   2.864   6.756  0.1716  2.5075  0.5846
20890SOL     OW64110   6.934   0.733   3.102  0.3653  0.0195 -0.0769
20890SOL    HW164111   7.017   0.726   3.148  0.9249 -4.7816 -1.2385
20890SOL    HW264112   6.867   0.716   3.169  0.6289 -0.0939  0.1559
20891SOL     OW64113   1.687   5.059   1.232  0.1701  0.6317  0.4045
20891SOL    HW164114   1.603   5.030   1.268  0.6543 -1.7057 -0.2073
20891SOL    HW264115   1.666   5.093   1.145  0.0712 -2.1551 -0.7428
20892SOL     OW64116   5.112   2.126   7.845 -0.2198  0.1057 -0.2183
20892SOL    HW164117   5.098   2.031   7.840  0.8910 -0.1363  0.9249
20892SOL    HW264118   5.085   2.150   7.934  1.8522  0.4164  0.3810
20893SOL     OW64119   4.848   3.186   9.517 -0.1806 -0.3835  0.1868
20893SOL    HW164120   4.827   3.094   9.532  0.0851 -0.3055  1.1212
20893SOL    HW264121   4.903   3.186   9.438  0.1304 -1.0686  0.3946
20894SOL     OW64122   0.875   4.955   7.140 -0.0469 -0.1204  0.3820
20894SOL    HW164123   0.835   4.869   7.128 -0.8002  0.2566  0.1074
20894SOL    HW264124   0.950   4.939   7.197 -0.4135 -0.8945  0.6630
20895SOL     OW64125   0.493   6.834   8.757 -0.6420  0.2067  0.1893
20895SOL    HW164126   0.482   6.843   8.663 -0.9173  3.3833  0.4194
20895SOL    HW264127   0.587   6.842   8.771 -0.5512 -0.7224  0.1883
20896SOL     OW64128   0.464   2.425   2.463  0.2279  0.3615  0.2677
20896SOL    HW164129   0.532   2.492   2.473  0.1600  0.4805 -0.0769
20896SOL    HW264130   0.423   2.420   2.549  0.7578  0.1965  0.5191
20897SOL     OW64131   5.721   7.258   1.068 -0.3349 -0.0399  0.4878
20897SOL    HW164132   5.699   7.209   1.147 -1.1209 -0.5488 -0.0338
20897SOL    HW264133   5.816   7.249   1.060 -0.3258 -0.4981  1.0348
20898SOL     OW64134   5.674   0.985  11.950 -0.3998 -0.0996  0.1139
20898SOL    HW164135   5.660   1.023  11.863  1.3861  1.4397  0.4435
20898SOL    HW264136   5.599   1.015  12.001 -0.9176 -0.1454 -0.5890
20899SOL     OW64137   6.448   3.271   7.687 -0.3223 -0.0248 -0.2885
20899SOL    HW164138   6.493   3.300   7.766 -0.3870 -1.9082  0.5000
20899SOL    HW264139   6.408   3.350   7.651 -0.8528  0.7957  1.9427
20900SOL     OW64140   4.414   1.430   3.892  0.5141  0.2524  0.5206
20900SOL    HW164141   4.350   1.460   3.827  2.0164  1.2394 -0.5738
20900SOL    HW264142   4.362   1.384   3.957 -1.5282  2.4409  0.5721
20901SOL     OW64143   6.390   3.026  11.512 -0.1404 -0.1000 -0.1250
20901SOL    HW164144   6.344   3.008  11.594  2.0429  0.7897  1.4140
20901SOL    HW264145   6.459   2.959  11.509 -0.7433 -0.6900 -1.7471
20902SOL     OW64146   1.887   5.602  12.393  0.1423 -0.2083  0.2960
20902SOL    HW164147   1.795   5.584  12.375  0.0159  1.1552 -0.5605
20902SOL    HW264148   1.903   5.562  12.479 -1.8080  1.3259  1.4417
20903SOL     OW64149   5.361   7.780   8.859 -0.3002  0.5294 -0.5878
20903SOL    HW164150   5.305   7.765   8.935 -0.5570 -1.6420 -1.1263
20903SOL    HW264151   5.332   7.714   8.795  0.8423  1.3767 -2.0265
20904SOL     OW64152   2.263   7.677  10.458  0.3225  0.2051  0.5926
20904SOL    HW164153   2.191   7.720  10.504  1.1662  0.9630  1.2497
20904SOL    HW264154   2.265   7.719  10.372 -0.1866 -0.0113  0.4757
20905SOL     OW64155   0.106   4.809   6.291 -0.4129  0.4715 -0.2016
20905SOL    HW164156   0.118   4.776   6.380 -0.3571  0.2933 -0.2727
20905SOL    HW264157   0.092   4.729   6.238  1.6200  0.3932 -0.6997
20906SOL     OW64158   4.898   3.717   0.930 -0.2021  0.0144  0.0436
20906SOL    HW164159   4.977   3.765   0.907 -0.2522  0.3087  0.4783
20906SOL    HW264160   4.928   3.628   0.948 -0.3952 -0.8009 -3.0811
20907SOL     OW64161   6.659   7.256   9.161 -0.0191 -0.2015  0.1350
20907SOL    HW164162   6.620   7.340   9.186 -0.0014 -0.1226 -0.1046
20907SOL    HW264163   6.729   7.278   9.100  0.7592 -0.3027  0.9678
20908SOL     OW64164   3.136   2.421   2.385  0.0072 -0.4965 -0.2011
20908SOL    HW164165   3.221   2.420   2.341  0.0840 -0.8975 -0.0470
20908SOL    HW264166   3.073   2.415   2.314  0.1327 -1.2009 -0.2574
20909SOL     OW64167   3.849   4.262   8.217  0.3895 -0.1998 -0.2000
20909SOL    HW164168   3.775   4.232   8.164  0.8809 -2.4537  0.3204
20909SOL    HW264169   3.810   4.301   8.295 -0.2753 -1.8007  0.2926
20910SOL     OW64170   3.227   5.294   4.164  0.3419 -0.4205  0.0094
20910SOL    HW164171   3.228   5.252   4.078 -0.9848  0.4677 -0.4536
20910SOL    HW264172   3.302   5.354   4.162  0.5342 -0.6705 -0.3852
20911SOL     OW64173   1.388   6.724   0.134  0.0427  0.6707  0.2027
20911SOL    HW164174   1.326   6.791   0.162  0.6839  0.0247  3.7056
20911SOL    HW264175   1.339   6.642   0.140  0.9158  0.2222  2.4307
20912SOL     OW64176   4.764   2.206   5.227 -0.1258 -0.0762 -0.1804
20912SOL    HW164177   4.849   2.170   5.252  0.8172  1.4302 -1.0401
20912SOL    HW264178   4.714   2.131   5.195  1.0922 -0.9060 -0.1963
20913SOL     OW64179   2.883   6.182   1.007  1.0941  1.6256  0.0197
20913SOL    HW164180   2.974   6.181   1.035  1.2135  2.0509 -0.3421
20913SOL    HW264181   2.862   6.275   0.997  0.3252  1.5769  1.0461
20914SOL     OW64182   1.427   5.897  11.264 -0.1864  0.2149  0.0501
20914SOL    HW164183   1.431   5.859  11.352 -1.6289 -2.0896 -0.7943
20914SOL    HW264184   1.514   5.883  11.228  0.0496  0.0339  0.6710
20915SOL     OW64185   2.605   0.197   0.726  0.2616 -0.0686 -0.2197
20915SOL    HW164186   2.696   0.171   0.736  0.4068  0.3732 -0.3844
20915SOL    HW264187   2.579   0.160   0.642 -0.2968 -1.8571  0.6908
20916SOL     OW64188   6.044   4.687  10.508  0.1407 -0.2298 -0.0223
20916SOL    HW164189   6.024   4.606  10.460  0.8105 -0.0426 -0.6512
20916SOL    HW264190   6.037   4.756  10.442 -0.4596  0.2277  0.5225
20917SOL     OW64191   2.327   4.778  10.764  0.6299  0.3115  0.2021
20917SOL    HW164192   2.304   4.811  10.677  2.8015 -0.2828 -0.6845
20917SOL    HW264193   2.399   4.835  10.792  1.2540 -0.7228  0.7348
20918SOL     OW64194   1.952   1.567   0.519  0.2202 -0.3473 -0.3089
20918SOL    HW164195   1.873   1.602   0.480 -0.5949 -1.0835  0.6331
20918SOL    HW264196   1.932   1.560   0.612  2.3643  2.1029  0.4585
20919SOL     OW64197   0.648   0.258   6.726  0.3184 -0.0229  0.1672
20919SOL    HW164198   0.661   0.352   6.720 -1.2104  0.1373 -1.1890
20919SOL    HW264199   0.597   0.246   6.806  1.4134  0.1628  0.9163
20920SOL     OW64200   1.769   0.876   2.319 -0.1631 -0.2143 -0.2039
20920SOL    HW164201   1.781   0.969   2.337 -0.7201 -0.1440 -0.1804
20920SOL    HW264202   1.792   0.867   2.226  0.5388 -0.1804 -0.0430
20921SOL     OW64203   1.528   6.563   3.762 -0.0163 -0.1094 -0.5336
20921SOL    HW164204   1.517   6.633   3.697 -0.6786  0.6440  0.3510
20921SOL    HW264205   1.608   6.587   3.809 -1.0687  0.9576  0.7980
20922SOL     OW64206   4.667   1.546  11.097 -0.0212 -0.5718 -1.0722
20922SOL    HW164207   4.586   1.595  11.114 -0.3448 -1.2783 -0.5086
20922SOL    HW264208   4.656   1.465  11.148  2.3933  0.6796  1.7374
20923SOL     OW64209   3.531   6.011   5.122  0.3231  0.5710 -0.3629
20923SOL    HW164210   3.451   6.029   5.171  1.0603 -0.5378  1.3099
20923SOL    HW264211   3.553   6.095   5.082 -0.9415  1.2167  0.2317
20924SOL     OW64212   5.615   1.590   7.635  0.3105  0.0130 -0.0894
20924SOL    HW164213   5.647   1.581   7.546  0.9824  1.8442 -0.0859
20924SOL    HW264214   5.667   1.662   7.672 -1.9179  1.2791  0.8000
20925SOL     OW64215   2.004   4.325   2.683  0.0217 -0.3148  0.0861
20925SOL    HW164216   1.997   4.289   2.594  0.0343  0.1183 -0.0911
20925SOL    HW264217   1.921   4.301   2.725 -0.6004  0.7414 -0.5108
20926SOL     OW64218   2.548   0.945   3.734  0.3859 -0.5265  0.1140
20926SOL    HW164219   2.456   0.930   3.754  0.4280  0.5826  1.2492
20926SOL    HW264220   2.595   0.904   3.806  0.9301 -2.7930 -1.4072
20927SOL     OW64221   6.780   0.535   1.031  0.0630 -0.4250  0.0752
20927SOL    HW164222   6.834   0.614   1.024  1.1804 -1.3295 -2.4792
20927SOL    HW264223   6.715   0.557   1.098 -0.2032  2.9789 -1.1133
20928SOL     OW64224   2.833   5.347  10.796 -0.3211 -0.5355 -0.2674
20928SOL    HW164225   2.865   5.338  10.706  1.2835 -1.0762  0.3150
20928SOL    HW264226   2.898   5.301  10.849 -1.3201 -0.3674  1.1658
20929SOL     OW64227   1.752   7.483   3.576 -0.0976 -0.0483  0.2419
20929SOL    HW164228   1.670   7.445   3.608 -0.8196  0.9528 -0.3986
20929SOL    HW264229   1.748   7.575   3.602  1.0035 -0.0680  0.5331
20930SOL     OW64230   6.636   1.474  11.439 -0.3460  0.0556 -0.0496
20930SOL    HW164231   6.673   1.461  11.526  0.1547  0.3501 -0.2119
20930SOL    HW264232   6.632   1.387  11.401  2.9234  0.2421 -1.1108
20931SOL     OW64233   1.380   5.323   5.963 -0.7565 -0.2560 -0.2182
20931SOL    HW164234   1.358   5.312   6.056 -0.4514  1.0578  0.0387
20931SOL    HW264235   1.459   5.272   5.950 -0.3962  0.1209  0.4347
20932SOL     OW64236   4.396   6.743  10.874  0.5222  0.5401  0.3885
20932SOL    HW164237   4.439   6.664  10.907  0.6287  1.1954  1.9005
20932SOL    HW264238   4.303   6.730  10.893  0.7265  1.5072  2.3738
20933SOL     OW64239   7.764   0.021  11.349  0.2165 -0.0187 -0.2713
20933SOL    HW164240   7.715   0.103  11.352  2.7452  1.6903 -1.6076
20933SOL    HW264241   7.828   0.029  11.419 -2.6430 -3.3050  3.1563
20934SOL     OW64242   2.588   7.880  10.142 -0.1400 -1.0524 -0.2258
20934SOL    HW164243   2.525   7.839  10.202 -0.3242  0.9236  1.0383
20934SOL    HW264244   2.672   7.839  10.163 -0.2723 -0.6703  1.1576
20935SOL     OW64245   1.705   3.937   3.793  0.2874  0.0539  0.2737
20935SOL    HW164246   1.643   3.947   3.720  0.3363 -0.3769  0.1750
20935SOL    HW264247   1.675   3.859   3.840  0.9695 -0.3688  0.0182
20936SOL     OW64248   6.959   0.654   1.967  0.4025 -0.1252 -0.2914
20936SOL    HW164249   7.006   0.580   2.004 -0.3415 -0.6626 -0.4119
20936SOL    HW264250   6.871   0.649   2.004 -0.1558 -0.2768 -1.5558
20937SOL     OW64251   3.124   0.238   3.335  0.1191 -0.3211 -0.2586
20937SOL    HW164252   3.171   0.162   3.369  0.0867 -1.2178 -2.0955
20937SOL    HW264253   3.183   0.312   3.352  0.5197 -0.8736  0.8196
20938SOL     OW64254   2.946   7.191   0.179 -0.2286 -0.4376 -0.3916
20938SOL    HW164255   2.858   7.192   0.217  0.1165 -0.2486  0.4296
20938SOL    HW264256   3.004   7.189   0.255  0.4647 -1.5711 -0.9416
20939SOL     OW64257   0.362   6.733  12.187 -0.0166 -0.3721  0.4471
20939SOL    HW164258   0.325   6.694  12.108  0.0339  0.1923  0.1424
20939SOL    HW264259   0.393   6.658  12.238 -1.9411 -0.8938  0.9084
20940SOL     OW64260   3.932   5.533   6.794  0.3048  0.3139 -0.6325
20940SOL    HW164261   3.878   5.492   6.726  1.2946 -1.1399 -0.5850
20940SOL    HW264262   3.954   5.619   6.758 -0.7659  0.3267 -1.3013
20941SOL     OW64263   1.640   5.594   2.089  0.5500  0.3384  0.4238
20941SOL    HW164264   1.687   5.617   2.009  0.6674  1.9663  0.9224
20941SOL    HW264265   1.708   5.591   2.156  0.1737  1.1408  0.8529
20942SOL     OW64266   2.365   0.280  11.378 -0.7583 -0.0086 -0.0179
20942SOL    HW164267   2.448   0.285  11.330  0.1082 -0.1182  1.4363
20942SOL    HW264268   2.321   0.363  11.358 -0.1118  0.2431 -0.4420
20943SOL     OW64269   2.368   1.908   0.671 -0.0575 -0.2923  0.3673
20943SOL    HW164270   2.405   1.986   0.631  1.1432 -1.0915 -0.1361
20943SOL    HW264271   2.315   1.868   0.602 -1.5253  0.5892  0.9373
20944SOL     OW64272   3.290   4.051  11.948  0.4840 -0.1261 -0.4809
20944SOL    HW164273   3.274   4.110  11.875 -0.9657 -0.1695 -0.2324
20944SOL    HW264274   3.376   4.012  11.929 -0.3202 -0.9857 -2.7582
20945SOL     OW64275   5.958   0.212   0.022  0.0336 -0.5134  0.9120
20945SOL    HW164276   6.003   0.243  -0.058 -0.7530 -0.9257  0.2970
20945SOL    HW264277   5.915   0.290   0.056  0.2218 -0.3716  0.8306
20946SOL     OW64278   1.955   5.827   4.117 -0.3376  0.1647 -0.2041
20946SOL    HW164279   2.020   5.795   4.179  0.5022 -1.6212 -1.8780
20946SOL    HW264280   1.983   5.916   4.096 -0.9871  1.0413  2.3314
20947SOL     OW64281   4.482   2.384   7.760 -0.6264 -0.0519 -0.0004
20947SOL    HW164282   4.436   2.301   7.741 -2.0537  0.9908 -1.3882
20947SOL    HW264283   4.468   2.397   7.854  1.3263 -2.3083  0.7216
20948SOL     OW64284   5.844   2.823   0.251  0.2994  0.0319 -0.0227
20948SOL    HW164285   5.757   2.797   0.280  0.2947 -2.0886 -1.6811
20948SOL    HW264286   5.844   2.806   0.157  2.4753  0.0186 -0.0731
20949SOL     OW64287   3.788   7.323   5.778 -0.0573  0.4432 -0.5405
20949SOL    HW164288   3.729   7.301   5.850 -1.5375 -0.3388 -1.9313
20949SOL    HW264289   3.826   7.239   5.751  0.0073  0.6458 -1.0844
20950SOL     OW64290   1.291   0.836   4.186  0.5937 -0.5548  0.1809
20950SOL    HW164291   1.277   0.830   4.092 -0.9710 -0.0893  0.3640
20950SOL    HW264292   1.380   0.802   4.199  0.5915 -1.2340 -1.3753
20951SOL     OW64293   2.142   1.666   6.025  0.2726 -0.7811  0.1743
20951SOL    HW164294   2.065   1.689   5.973  0.3685  0.6667  0.6415
20951SOL    HW264295   2.108   1.613   6.097 -0.5703  1.2990  1.3729
20952SOL     OW64296   1.537   7.165   1.831  0.0213 -0.0752  0.4807
20952SOL    HW164297   1.501   7.225   1.897 -1.3121  0.3832 -0.6207
20952SOL    HW264298   1.465   7.151   1.770  1.3116 -0.2570 -1.0487
20953SOL     OW64299   0.580   7.390   6.202  0.4049  0.0101 -0.0122
20953SOL    HW164300   0.488   7.373   6.219  0.6553 -0.4313  0.9713
20953SOL    HW264301   0.596   7.477   6.239  1.1187 -1.2377  2.9013
20954SOL     OW64302   7.794   3.195  10.666 -0.2154 -0.1961  0.1009
20954SOL    HW164303   7.836   3.275  10.634 -1.1936  0.1862 -0.2586
20954SOL    HW264304   7.707   3.223  10.692 -0.6088 -1.1752 -0.1399
20955SOL     OW64305   7.269   7.350   2.918  0.0243  0.4971 -0.3744
20955SOL    HW164306   7.195   7.326   2.862 -2.0529  2.0114  1.5435
20955SOL    HW264307   7.347   7.325   2.867 -1.7562 -2.2843 -1.9796
20956SOL     OW64308   5.921   1.298   6.209 -0.0206 -0.2113 -0.5075
20956SOL    HW164309   5.932   1.392   6.227  2.9343 -0.2079 -1.6788
20956SOL    HW264310   5.913   1.293   6.114 -2.0311 -1.0908 -0.3419
20957SOL     OW64311   4.284   1.650   0.583 -0.0116  0.2583  0.8131
20957SOL    HW164312   4.294   1.662   0.677 -0.1330  1.3362  0.7019
20957SOL    HW264313   4.357   1.593   0.558 -0.0429 -0.1243  1.5699
20958SOL     OW64314   4.731   5.869   5.994 -0.4230  0.0056 -0.0371
20958SOL    HW164315   4.637   5.862   6.012 -0.8471  0.0536 -1.9464
20958SOL    HW264316   4.746   5.962   5.981  0.5548  0.3896  3.1482
20959SOL     OW64317   0.851   2.542  10.466  0.2803  0.4084 -0.3503
20959SOL    HW164318   0.926   2.573  10.516  0.8639  0.4803 -1.2316
20959SOL    HW264319   0.855   2.446  10.474  0.3469  0.4211 -0.2341
20960SOL     OW64320   4.901   2.295   8.382  0.3206  0.2511  0.2330
20960SOL    HW164321   4.918   2.387   8.361 -1.3661  0.3555 -0.8563
20960SOL    HW264322   4.985   2.262   8.416  1.2488  1.8992 -0.3562
20961SOL     OW64323   3.763   4.841   5.451 -0.0954 -0.1959 -0.2274
20961SOL    HW164324   3.725   4.763   5.492 -0.2401  0.2138  0.4176
20961SOL    HW264325   3.853   4.843   5.484  0.3161 -0.8139 -1.2639
20962SOL     OW64326   5.552   6.902   1.851  0.7538 -0.1772 -0.0061
20962SOL    HW164327   5.597   6.906   1.767 -1.6373 -0.0218 -1.3629
20962SOL    HW264328   5.511   6.988   1.860 -2.4361 -1.4747 -0.7778
20963SOL     OW64329   5.125   6.074  12.345 -0.3741  0.0973  0.2733
20963SOL    HW164330   5.193   6.032  12.398 -0.8879 -2.2807 -0.8163
20963SOL    HW264331   5.173   6.136  12.290  1.1691 -2.2133 -1.1710
20964SOL     OW64332   0.336   4.066   3.795  0.6311  0.1696 -0.4472
20964SOL    HW164333   0.419   4.113   3.804  0.5397  0.3256 -0.3995
20964SOL    HW264334   0.361   3.976   3.776  0.8222  0.0709  0.2209
20965SOL     OW64335   4.167   3.606  12.017  0.4578 -0.0023 -0.2068
20965SOL    HW164336   4.164   3.569  11.929 -0.6168 -0.6982  0.0950
20965SOL    HW264337   4.113   3.685  12.013  2.9284  1.7564 -0.9039
20966SOL     OW64338   4.994   0.569  11.316 -0.2131 -0.3088  0.0417
20966SOL    HW164339   4.955   0.520  11.387 -0.5018  0.7256  0.6221
20966SOL    HW264340   5.079   0.598  11.349 -0.5807  0.6412  0.1849
20967SOL     OW64341   3.621   6.506   9.051 -0.2240 -0.5912  0.1384
20967SOL    HW164342   3.626   6.445   8.977 -1.6669  1.3102 -1.6427
20967SOL    HW264343   3.528   6.526   9.060  0.2586  2.0915 -0.0558
20968SOL     OW64344   3.696   6.019   8.920  0.0283 -0.1214  0.7007
20968SOL    HW164345   3.778   6.051   8.882  0.5400 -1.3855  0.6931
20968SOL    HW264346   3.700   5.924   8.909 -1.2534 -0.2398  1.0841
20969SOL     OW64347   6.755   5.256  10.897 -0.4361 -0.3325  0.4391
20969SOL    HW164348   6.792   5.184  10.948  0.8708  1.0487  1.5444
20969SOL    HW264349   6.824   5.280  10.835 -1.1666 -0.5204 -0.4822
20970SOL     OW64350   4.837   4.656   8.401  0.1338 -0.0461  0.0401
20970SOL    HW164351   4.861   4.717   8.470 -0.4795 -0.6523  0.8069
20970SOL    HW264352   4.913   4.599   8.391  0.1573 -0.0700  0.3504
20971SOL     OW64353   2.409   1.067   6.070  0.0932 -0.5391 -0.2578
20971SOL    HW164354   2.348   1.130   6.032 -0.4472 -1.6317 -1.2761
20971SOL    HW264355   2.495   1.108   6.063 -0.5435  1.3206  1.8054
20972SOL     OW64356   0.842   6.304   7.479 -0.3410  0.0636 -0.0567
20972SOL    HW164357   0.868   6.273   7.392 -0.0136  1.0532 -0.3244
20972SOL    HW264358   0.832   6.398   7.469 -2.0431 -0.0177  0.5585
20973SOL     OW64359   0.385   2.515   9.306  0.1617 -0.4925 -0.0502
20973SOL    HW164360   0.414   2.432   9.269  0.1269 -0.1428 -0.8961
20973SOL    HW264361   0.460   2.573   9.296  0.0042 -0.2717  0.0429
20974SOL     OW64362   3.573   0.742   8.360 -0.2190 -0.2572  0.2145
20974SOL    HW164363   3.499   0.695   8.321 -1.1417 -0.1780  1.8021
20974SOL    HW264364   3.534   0.805   8.419  1.0660  1.6183 -0.8305
20975SOL     OW64365   4.408   4.082   1.864  0.2276  0.9726  0.5279
20975SOL    HW164366   4.426   4.161   1.917  0.7130  0.3516  1.3113
20975SOL    HW264367   4.387   4.015   1.929 -1.1356  0.6807 -0.1792
20976SOL     OW64368   2.998   0.598   4.567  0.6534  0.8940 -0.1844
20976SOL    HW164369   3.059   0.643   4.509  2.0752 -1.5165 -0.6749
20976SOL    HW264370   2.914   0.643   4.553  2.0401  3.7140 -0.1470
20977SOL     OW64371   2.936   6.615  12.211 -0.1039  0.3801 -0.0192
20977SOL    HW164372   2.928   6.520  12.222 -0.5973  0.4097 -0.1009
20977SOL    HW264373   2.866   6.651  12.266  0.0155  0.6902 -0.0706
20978SOL     OW64374   1.979   1.012   8.992  0.0259  0.1559 -0.0928
20978SOL    HW164375   1.888   1.036   8.978  0.3254  0.2068 -2.1938
20978SOL    HW264376   2.030   1.088   8.964  0.7528 -0.4211 -0.3913
20979SOL     OW64377   0.274   2.434   4.377  0.0879  0.2450 -0.0094
20979SOL    HW164378   0.319   2.504   4.424  0.4086 -0.5165  0.8699
20979SOL    HW264379   0.319   2.354   4.406 -1.7580 -0.5402  0.8422
20980SOL     OW64380   1.526   1.184   5.332 -0.3303 -0.1142  0.3631
20980SOL    HW164381   1.573   1.192   5.249 -2.2516 -0.3907 -0.7988
20980SOL    HW264382   1.567   1.108   5.375  0.9027  0.2323 -0.1618
20981SOL     OW64383   6.157   3.979   7.484 -0.6208  0.2683  0.0926
20981SOL    HW164384   6.184   3.983   7.392 -0.4061  0.3884  0.1597
20981SOL    HW264385   6.128   3.889   7.497 -0.6720  0.2578 -0.0995
20982SOL     OW64386   2.054   5.821  12.123 -0.5849  0.2283  0.3224
20982SOL    HW164387   2.081   5.818  12.032 -0.5630  1.1756  0.2858
20982SOL    HW264388   2.097   5.746  12.164  0.0487  0.2573 -0.2763
20983SOL     OW64389   1.268   3.039   9.554 -0.6571 -0.0240  0.3395
20983SOL    HW164390   1.358   3.071   9.565 -0.1887 -1.0727 -0.3000
20983SOL    HW264391   1.217   3.117   9.535  0.7191  0.2282 -2.8424
20984SOL     OW64392   3.878   4.776   3.768 -0.3022 -0.1763 -0.0900
20984SOL    HW164393   3.865   4.691   3.726 -1.3369 -0.8617  1.5460
20984SOL    HW264394   3.828   4.771   3.850  0.9444  1.4036  0.8320
20985SOL     OW64395   1.096   0.119   0.281  0.1483 -0.1322  0.0639
20985SOL    HW164396   1.109   0.059   0.354  0.5400  1.1689  1.1114
20985SOL    HW264397   1.141   0.078   0.207 -0.0860 -1.3820  0.5965
20986SOL     OW64398   6.795   6.596   8.012  0.3645  0.1734 -0.1226
20986SOL    HW164399   6.744   6.540   8.069 -1.9188  0.4012 -1.8109
20986SOL    HW264400   6.812   6.674   8.064 -1.8965  0.5047  0.2171
20987SOL     OW64401   1.800   3.017  11.684 -0.0314 -0.0826 -0.3674
20987SOL    HW164402   1.805   3.112  11.681 -2.6038  0.2599  2.0263
20987SOL    HW264403   1.883   2.990  11.723  0.9629  1.0814 -1.5892
20988SOL     OW64404   5.855   1.309   5.953  0.0462  0.4146 -0.0516
20988SOL    HW164405   5.924   1.357   5.906 -0.1192 -1.3840 -2.3021
20988SOL    HW264406   5.776   1.325   5.901  0.2994 -3.5534 -2.0063
20989SOL     OW64407   2.897   4.597  11.780 -0.0960  0.4021 -0.8629
20989SOL    HW164408   2.975   4.592  11.836 -1.0142 -0.7741  0.4005
20989SOL    HW264409   2.890   4.510  11.740 -1.3094  0.1335 -0.1364
20990SOL     OW64410   2.397   6.280   2.052  0.3318  0.6609 -0.4500
20990SOL    HW164411   2.453   6.325   1.989  2.7117 -3.4414 -1.6599
20990SOL    HW264412   2.440   6.295   2.137  2.4686 -0.9917 -1.1367
20991SOL     OW64413   7.215   1.134   9.707 -0.0435  0.8015  0.2716
20991SOL    HW164414   7.303   1.128   9.743 -1.1706 -0.7034  3.0988
20991SOL    HW264415   7.174   1.205   9.756 -0.9574  0.2523  0.3246
20992SOL     OW64416   2.546   7.820   5.316 -1.3942 -0.0328  0.5870
20992SOL    HW164417   2.604   7.888   5.350 -0.1356 -1.0226  0.4784
20992SOL    HW264418   2.564   7.817   5.222 -0.8526 -1.0363  0.7079
20993SOL     OW64419   7.558   1.903  11.171  0.0013  0.7193  0.4349
20993SOL    HW164420   7.586   1.884  11.081  1.7118 -1.4627  1.3210
20993SOL    HW264421   7.640   1.911  11.220 -0.8905 -0.0016  2.1363
20994SOL     OW64422   1.999   3.588   1.759  0.5676 -0.4168 -0.0360
20994SOL    HW164423   1.948   3.595   1.839  0.4929  0.5786 -0.1562
20994SOL    HW264424   2.013   3.494   1.747  0.0169 -0.6099  0.7798
20995SOL     OW64425   0.258   2.882   6.254 -0.3158  0.4071  0.4298
20995SOL    HW164426   0.192   2.845   6.195  0.1223 -2.0221  1.3694
20995SOL    HW264427   0.333   2.899   6.197 -0.2763 -0.8896  0.0518
20996SOL     OW64428   4.188   6.869   2.333  0.0966  0.0079  0.2376
20996SOL    HW164429   4.241   6.948   2.344 -1.9337  1.5608 -0.4267
20996SOL    HW264430   4.172   6.864   2.238 -0.2432 -0.9175  0.3305
20997SOL     OW64431   6.937   6.290   4.335  0.8015 -0.1210  0.0530
20997SOL    HW164432   6.881   6.227   4.380  0.4287  0.1880  0.0302
20997SOL    HW264433   6.877   6.339   4.278  0.8440  1.1281  1.0279
20998SOL     OW64434   5.032   5.982   5.685  0.0321  0.1261  0.4696
20998SOL    HW164435   5.042   6.004   5.592  0.8203 -0.7752  0.3241
20998SOL    HW264436   5.062   5.891   5.691 -1.3544 -0.2950  1.3730
20999SOL     OW64437   2.825   4.893   4.899 -0.1188 -0.1291  0.1694
20999SOL    HW164438   2.808   4.984   4.876  0.3899 -0.3294 -1.0452
20999SOL    HW264439   2.788   4.842   4.827  2.7226 -0.7161 -0.9976
21000SOL     OW64440   0.632   7.914   8.912  0.1876 -0.3314 -0.1698
21000SOL    HW164441   0.673   7.942   8.993  0.1236  0.6126 -0.4572
21000SOL    HW264442   0.560   7.975   8.899 -0.6692 -1.3182 -0.2219
21001SOL     OW64443   7.961   3.035   7.405 -0.5822  0.5318 -0.0067
21001SOL    HW164444   7.937   2.947   7.436 -0.3987  0.4237 -0.1664
21001SOL    HW264445   8.055   3.042   7.424 -0.3004  0.1907 -1.1662
21002SOL     OW64446   5.086   3.113   0.317  0.5940  0.0853  0.3973
21002SOL    HW164447   5.047   3.201   0.315  0.7589  0.1495 -0.1477
21002SOL    HW264448   5.011   3.054   0.309  0.6022  0.2122 -0.8639
21003SOL     OW64449   7.612   1.518   9.680  0.3987  0.1717  0.7721
21003SOL    HW164450   7.694   1.497   9.634 -0.1589  0.9719 -0.6551
21003SOL    HW264451   7.604   1.613   9.672  0.9223  0.5470  3.7413
21004SOL     OW64452   6.953   3.649   7.139  0.6011  0.4687  0.2013
21004SOL    HW164453   6.919   3.561   7.123 -0.0058  0.4744  1.3667
21004SOL    HW264454   7.048   3.639   7.137  0.5415 -0.3657  1.0634
21005SOL     OW64455   5.263   1.422   4.111 -0.0901  0.3042 -0.0046
21005SOL    HW164456   5.202   1.423   4.185  0.7756  3.3308  0.8423
21005SOL    HW264457   5.209   1.446   4.035 -0.8598 -2.2072 -0.3445
21006SOL     OW64458   6.761   6.026  11.827  0.0754 -0.0299  0.1563
21006SOL    HW164459   6.774   6.025  11.732  1.8130 -0.9533  0.3670
21006SOL    HW264460   6.730   6.115  11.846  1.7958  0.8708 -1.0296
21007SOL     OW64461   4.064   6.882  11.688 -0.3914  0.1006  0.2802
21007SOL    HW164462   4.010   6.923  11.755 -0.1887 -1.0799  1.2015
21007SOL    HW264463   4.010   6.811  11.653  0.7125 -1.5103  1.6668
21008SOL     OW64464   5.322   6.458  12.391 -0.2018 -0.1867 -0.1659
21008SOL    HW164465   5.390   6.492  12.449  0.9594 -0.9975 -1.0105
21008SOL    HW264466   5.290   6.379  12.435 -2.0228  1.2136  1.1837
21009SOL     OW64467   7.352   6.188   6.724  0.3094 -0.1060  0.7774
21009SOL    HW164468   7.372   6.272   6.682 -1.1847  0.7129  1.6034
21009SOL    HW264469   7.344   6.126   6.651  2.3055  0.2296  0.2124
21010SOL     OW64470   0.545   7.357   6.525 -0.4208  0.6435  0.3753
21010SOL    HW164471   0.638   7.377   6.531  0.3744 -2.7235  2.4831
21010SOL    HW264472   0.506   7.402   6.600  0.1838 -0.4976  1.4170
21011SOL     OW64473   1.805   4.911   8.195 -0.5655 -0.6105 -0.5503
21011SOL    HW164474   1.872   4.893   8.129  0.0294 -0.4763  0.0128
21011SOL    HW264475   1.783   5.004   8.181  0.2367 -0.3258  0.0458
21012SOL     OW64476   4.434   7.115  11.385 -0.4072  0.0059 -0.0001
21012SOL    HW164477   4.476   7.038  11.347  0.7578  0.2141  0.8065
21012SOL    HW264478   4.387   7.082  11.461  0.4933  0.1397  0.6303
21013SOL     OW64479   2.688   3.266   2.734 -0.0869  0.2501 -0.0282
21013SOL    HW164480   2.702   3.323   2.658 -2.1897  0.4934 -0.2993
21013SOL    HW264481   2.631   3.196   2.701  1.7097 -1.5695  0.5290
21014SOL     OW64482   2.417   3.182  11.944 -0.1871  0.2577  0.5497
21014SOL    HW164483   2.437   3.193  11.851 -0.5570  2.3538  0.6794
21014SOL    HW264484   2.501   3.197  11.988  0.1407 -1.4037  0.5653
21015SOL     OW64485   0.502   5.973   9.071 -0.1093  0.3386 -0.5776
21015SOL    HW164486   0.477   6.008   8.985 -0.9814  0.2846 -0.3612
21015SOL    HW264487   0.487   5.878   9.063  1.0004  0.1723 -0.7545
21016SOL     OW64488   7.652   6.535  11.263 -0.4113  0.3080  0.1028
21016SOL    HW164489   7.629   6.614  11.311 -1.2369  0.3193 -0.3029
21016SOL    HW264490   7.627   6.553  11.173 -0.3414 -0.3104 -0.0438
21017SOL     OW64491   0.687   1.345   3.505 -0.0256  0.4114  0.3564
21017SOL    HW164492   0.668   1.296   3.585  0.4162  0.3978  0.4547
21017SOL    HW264493   0.601   1.363   3.467 -0.2439  0.5527  0.9154
21018SOL     OW64494   5.101   6.138   2.341 -0.1070  0.3761 -0.2653
21018SOL    HW164495   5.103   6.232   2.323 -0.9983  0.4186 -0.1960
21018SOL    HW264496   5.040   6.103   2.276  0.3409 -0.1860 -0.3919
21019SOL     OW64497   2.517   7.735   8.596 -0.6450  0.3796 -0.3675
21019SOL    HW164498   2.493   7.685   8.518  2.8764  0.9828 -1.9931
21019SOL    HW264499   2.514   7.671   8.667 -1.0003 -0.9136 -1.5063
21020SOL     OW64500   4.675   7.414  10.373  0.0222 -0.5670  0.0418
21020SOL    HW164501   4.725   7.333  10.374  1.4917  0.2881 -0.6798
21020SOL    HW264502   4.585   7.387  10.387  0.1274 -2.5912 -2.4537
21021SOL     OW64503   3.705   3.230  10.374 -0.0480  0.3861  0.1850
21021SOL    HW164504   3.790   3.228  10.329 -0.6470 -0.9664 -0.9659
21021SOL    HW264505   3.644   3.265  10.309 -0.5648  0.3056  0.6226
21022SOL     OW64506   4.248   6.404  12.406 -0.2936 -0.7907 -0.3443
21022SOL    HW164507   4.214   6.486  12.444  0.2418 -0.9481  0.4973
21022SOL    HW264508   4.342   6.419  12.397 -0.2481 -1.1833 -0.5424
21023SOL     OW64509   0.427   5.175  11.330 -0.5354  0.2218  0.6209
21023SOL    HW164510   0.365   5.167  11.403 -0.7452  0.3836  0.4608
21023SOL    HW264511   0.487   5.101  11.342 -0.0730  0.7108  1.4236
21024SOL     OW64512   5.191   7.883   6.545  0.1352  0.2100  0.6177
21024SOL    HW164513   5.118   7.834   6.583  0.5825 -0.4815  0.6094
21024SOL    HW264514   5.150   7.941   6.481 -0.2595 -1.3807 -0.6278
21025SOL     OW64515   0.010   4.251   7.383 -0.0555 -0.2028 -0.0527
21025SOL    HW164516   0.085   4.307   7.399  1.4485 -2.0294 -0.3795
21025SOL    HW264517   0.009   4.190   7.456 -0.4740 -0.9696 -0.6830
21026SOL     OW64518   3.382   4.482   6.596  0.2350 -0.7501 -0.2389
21026SOL    HW164519   3.293   4.470   6.629  1.0681  0.1370  2.5856
21026SOL    HW264520   3.381   4.568   6.555  0.1870  0.1236  1.5023
21027SOL     OW64521   3.179   5.545   7.224 -0.3766  0.7769  0.3713
21027SOL    HW164522   3.157   5.638   7.223 -0.4893  0.7846  1.6562
21027SOL    HW264523   3.275   5.543   7.230 -0.4125  0.8190  0.9718
21028SOL     OW64524   0.420   4.247   7.277  0.6172 -0.0101 -0.2730
21028SOL    HW164525   0.409   4.278   7.187  0.6812 -0.4613 -0.4400
21028SOL    HW264526   0.399   4.153   7.272 -0.7654  0.2423  0.4592
21029SOL     OW64527   7.796   6.026  10.456 -0.1780  0.1091 -0.2663
21029SOL    HW164528   7.849   5.947  10.466 -0.6057 -0.2880 -1.0566
21029SOL    HW264529   7.860   6.098  10.459  0.7982 -0.4487 -3.5173
21030SOL     OW64530   4.254   0.419   0.455  0.0079  1.2830 -0.4234
21030SOL    HW164531   4.161   0.395   0.450  0.3372  0.0766 -1.2187
21030SOL    HW264532   4.270   0.469   0.375  0.6488 -0.8973 -1.7425
21031SOL     OW64533   5.022   5.637   5.446 -0.1682 -0.5251 -0.3424
21031SOL    HW164534   4.950   5.671   5.392  0.2327 -0.2716 -0.7236
21031SOL    HW264535   5.100   5.650   5.392  0.0225 -1.9119 -0.4439
21032SOL     OW64536   2.520   5.423   2.817 -0.1332 -0.5523  0.4128
21032SOL    HW164537   2.434   5.380   2.814 -0.1674 -0.5649  1.3285
21032SOL    HW264538   2.507   5.507   2.772 -0.2803 -1.1220 -0.6343
21033SOL     OW64539   0.764   0.072   3.295  0.8832  0.2021  0.0825
21033SOL    HW164540   0.700   0.051   3.227  1.0183 -0.4189  0.1412
21033SOL    HW264541   0.750   0.005   3.363  0.6958  0.8572  0.7039
21034SOL     OW64542   2.643   2.907   6.541 -0.5861  0.0348 -0.1944
21034SOL    HW164543   2.549   2.919   6.528 -1.4007 -2.3572  2.5722
21034SOL    HW264544   2.665   2.830   6.490 -0.4380 -0.2306  0.2672
21035SOL     OW64545   4.294   4.557  11.768  0.0360 -0.5876  0.3641
21035SOL    HW164546   4.279   4.571  11.861  2.0648 -0.4799  0.7096
21035SOL    HW264547   4.285   4.644  11.729  1.0243 -0.3051  0.7494
21036SOL     OW64548   7.556   3.619   0.374 -0.1881 -0.2941 -0.0960
21036SOL    HW164549   7.593   3.690   0.427 -0.4878  0.3453 -0.7163
21036SOL    HW264550   7.529   3.662   0.293  0.3792 -1.2786 -0.8244
21037SOL     OW64551   3.457   5.956   0.927  0.3675  0.2688 -0.2230
21037SOL    HW164552   3.550   5.944   0.946  0.3148  2.2942  1.6779
21037SOL    HW264553   3.451   6.044   0.890 -0.9723  1.0779  1.7286
21038SOL     OW64554   1.121   7.066   5.878  0.6130 -0.7742  0.1471
21038SOL    HW164555   1.048   7.035   5.932 -0.9531  0.0971 -1.3272
21038SOL    HW264556   1.198   7.024   5.914 -0.6550 -1.8974  1.6789
21039SOL     OW64557   4.555   6.401   4.530  0.1541 -0.4030  0.4431
21039SOL    HW164558   4.462   6.383   4.544 -0.2242  1.3594  0.3361
21039SOL    HW264559   4.557   6.484   4.483  1.8570  0.7315  2.3747
21040SOL     OW64560   0.738   6.863   7.550  0.7779  0.2918  0.3540
21040SOL    HW164561   0.687   6.845   7.629 -1.0711 -0.2749 -0.9102
21040SOL    HW264562   0.828   6.838   7.574  0.3575  0.5731  2.3965
21041SOL     OW64563   6.497   4.063  10.226  0.0042 -0.1483 -0.0536
21041SOL    HW164564   6.535   4.119  10.293 -0.5806  1.0590 -0.7032
21041SOL    HW264565   6.559   4.067  10.153 -0.2822  0.0578 -0.2875
21042SOL     OW64566   1.234   4.313   3.885 -0.4417 -0.4276 -0.4054
21042SOL    HW164567   1.252   4.224   3.855 -1.5242 -1.1217  0.8767
21042SOL    HW264568   1.315   4.361   3.867  0.4805 -1.8783 -0.3296
21043SOL     OW64569   7.471   5.672   9.579  0.1094  0.1079 -0.0089
21043SOL    HW164570   7.543   5.620   9.615  0.0736  0.2858  0.3214
21043SOL    HW264571   7.453   5.738   9.646 -0.7765 -0.3222  0.1945
21044SOL     OW64572   2.255   6.263   7.417  0.3092 -0.0930  0.5210
21044SOL    HW164573   2.240   6.230   7.328  0.5050  1.7800 -0.2446
21044SOL    HW264574   2.348   6.287   7.418  0.5610 -0.9740  1.5771
21045SOL     OW64575   0.655   5.412   0.190 -0.6386 -0.3874 -0.3082
21045SOL    HW164576   0.700   5.355   0.128  0.0704  1.2900 -1.4355
21045SOL    HW264577   0.570   5.429   0.151 -0.9145 -0.8106  0.1077
21046SOL     OW64578   4.893   1.132   0.853 -0.7054 -0.8745  0.2277
21046SOL    HW164579   4.826   1.067   0.832 -0.6087 -0.3673 -1.9183
21046SOL    HW264580   4.970   1.103   0.804  0.8088 -1.6272  2.9015
21047SOL     OW64581   3.663   6.902   5.667 -0.3019 -0.3719  0.4806
21047SOL    HW164582   3.617   6.911   5.751  0.6657  0.6608  0.9388
21047SOL    HW264583   3.730   6.836   5.684  0.9772  1.0294  1.0566
21048SOL     OW64584   0.660   5.715   6.434  0.1235  0.0315  0.0295
21048SOL    HW164585   0.577   5.757   6.413 -0.0074 -0.0549  0.3580
21048SOL    HW264586   0.679   5.743   6.524  0.5042  0.1382 -0.0842
21049SOL     OW64587   1.918   5.045   5.841 -0.0335  0.5247 -0.3532
21049SOL    HW164588   1.949   4.981   5.904  1.5037  0.3678 -1.2261
21049SOL    HW264589   1.868   4.994   5.777 -1.4374  0.6603  0.6014
21050SOL     OW64590   4.485   4.855   6.973 -0.3782 -0.6906 -0.2787
21050SOL    HW164591   4.566   4.828   7.017 -0.8252 -1.4322  0.1108
21050SOL    HW264592   4.460   4.936   7.018  0.3159 -0.2709 -0.6254
21051SOL     OW64593   4.618   2.637  10.749 -0.2681 -0.5828 -0.4391
21051SOL    HW164594   4.631   2.542  10.740 -0.1877 -0.5334 -0.8657
21051SOL    HW264595   4.572   2.662  10.668 -0.2919 -0.2588 -0.3234
21052SOL     OW64596   2.261   3.508   8.165  0.3351  0.1540 -0.6283
21052SOL    HW164597   2.262   3.471   8.253 -0.4625 -0.7538 -0.9894
21052SOL    HW264598   2.348   3.548   8.155  0.1499  0.9958  0.8529
21053SOL     OW64599   4.324   5.397   3.352  0.7263  0.2630 -0.1906
21053SOL    HW164600   4.230   5.386   3.337  1.0253  1.4814 -4.3328
21053SOL    HW264601   4.331   5.478   3.402 -0.4109 -0.6495  1.5232
21054SOL     OW64602   6.731   4.134  11.313 -0.7496  0.2896 -0.1923
21054SOL    HW164603   6.758   4.223  11.334  2.9767 -1.0018  1.4267
21054SOL    HW264604   6.775   4.114  11.230  1.0727 -0.8872  0.9644
21055SOL     OW64605   5.014   0.524   0.047 -0.0764 -0.0276 -0.3880
21055SOL    HW164606   5.029   0.606  -0.000  0.8818  0.5892  0.9264
21055SOL    HW264607   5.101   0.485   0.056 -0.4758 -1.0040 -0.6521
21056SOL     OW64608   2.139   3.761  10.967 -0.4374  0.5690 -0.1501
21056SOL    HW164609   2.119   3.758  10.873  1.3089 -0.4128 -0.5435
21056SOL    HW264610   2.172   3.850  10.981 -1.3455  0.9381 -0.3126
21057SOL     OW64611   3.656   6.676   9.629  0.1420  0.3826  0.3373
21057SOL    HW164612   3.583   6.667   9.568 -0.0615 -1.4868  0.7922
21057SOL    HW264613   3.630   6.748   9.687 -1.2725 -0.1112  0.3628
21058SOL     OW64614   3.882   4.519   7.595 -0.3495 -0.1434  0.0192
21058SOL    HW164615   3.793   4.549   7.575 -0.5244  0.7518  1.9390
21058SOL    HW264616   3.938   4.570   7.537 -1.0801 -1.1202 -1.6236
21059SOL     OW64617   3.618   6.882   7.574  0.1868  0.2627 -0.2910
21059SOL    HW164618   3.646   6.973   7.562 -2.1874  0.9140 -1.4293
21059SOL    HW264619   3.672   6.850   7.645  1.0027  2.6179  0.2423
21060SOL     OW64620   1.101   5.742   4.205  0.3614  0.0567  0.0962
21060SOL    HW164621   1.023   5.699   4.239  0.3514 -1.1326 -1.3318
21060SOL    HW264622   1.078   5.766   4.115  1.8878 -1.0430 -0.6189
21061SOL     OW64623   3.291   4.147   6.493 -0.0364 -0.0700 -0.2266
21061SOL    HW164624   3.239   4.071   6.517 -0.2031  0.2254  0.3788
21061SOL    HW264625   3.251   4.180   6.413  0.5677 -1.1166 -0.9856
21062SOL     OW64626   2.117   0.758  11.387  0.0121 -0.0622  0.2368
21062SOL    HW164627   2.182   0.828  11.386 -2.5445  2.4703 -0.0405
21062SOL    HW264628   2.068   0.772  11.468 -0.9115 -1.2205 -0.0951
21063SOL     OW64629   6.323   3.330  10.206 -0.2891 -0.2655 -0.1879
21063SOL    HW164630   6.377   3.403  10.177 -1.2471  0.2988 -0.5872
21063SOL    HW264631   6.325   3.268  10.133  2.3102 -1.7001  0.9828
21064SOL     OW64632   4.513   6.914   0.497 -0.6240 -0.1214 -0.4685
21064SOL    HW164633   4.538   6.893   0.407  0.6451 -1.3304  0.1350
21064SOL    HW264634   4.530   6.834   0.546 -1.7443  0.3713  0.7870
21065SOL     OW64635   4.867   3.409   4.584 -0.2028  0.6617  0.1215
21065SOL    HW164636   4.895   3.326   4.546 -1.4547  0.3713 -0.2056
21065SOL    HW264637   4.788   3.432   4.536  0.4041  2.3303 -0.1591
21066SOL     OW64638   5.269   3.906   7.502  0.1819  0.0562 -0.1651
21066SOL    HW164639   5.338   3.964   7.535  1.5612  1.0008 -4.0757
21066SOL    HW264640   5.214   3.963   7.448 -1.6702 -1.3400  0.1513
21067SOL     OW64641   1.148   7.045   2.020  0.1267  0.5081  0.7792
21067SOL    HW164642   1.195   6.962   2.033  0.9152  0.4038 -2.0626
21067SOL    HW264643   1.216   7.109   2.000 -0.7344  0.5846 -2.3887
21068SOL     OW64644   2.437   5.816  10.236 -0.3464  0.1899 -0.0075
21068SOL    HW164645   2.506   5.768  10.281  1.6591  1.8501 -1.1241
21068SOL    HW264646   2.364   5.754  10.229  1.7214 -2.3343 -0.4944
21069SOL     OW64647   2.372   1.386   5.785 -0.3422 -0.0112  0.4200
21069SOL    HW164648   2.447   1.330   5.764  0.6554  0.8049  1.6219
21069SOL    HW264649   2.407   1.475   5.781 -1.8226  0.5428 -1.1754
21070SOL     OW64650   2.473   3.616  11.510 -1.0030 -0.3898  0.2339
21070SOL    HW164651   2.563   3.597  11.484 -0.4155  0.1183  1.8332
21070SOL    HW264652   2.461   3.570  11.593 -1.7605  0.6637  0.7334
21071SOL     OW64653   1.285   2.159  11.820 -0.4787 -0.3022 -0.1016
21071SOL    HW164654   1.339   2.166  11.741  0.7385  1.1873  0.7908
21071SOL    HW264655   1.305   2.072  11.855 -1.3514 -1.1566 -1.6044
21072SOL     OW64656   0.921   5.463   1.511 -0.6294  0.0367  0.5482
21072SOL    HW164657   0.942   5.496   1.424 -1.7193  0.2349  0.3477
21072SOL    HW264658   0.846   5.515   1.539 -2.0769 -1.8810  0.4337
21073SOL     OW64659   4.933   0.142   1.076 -0.5935  0.3915  0.4375
21073SOL    HW164660   5.012   0.150   1.022 -0.7629 -0.0603  0.1166
21073SOL    HW264661   4.861   0.154   1.014 -0.8102 -1.1640  0.3682
21074SOL     OW64662   1.627   0.548   8.612 -0.1044 -0.2545  0.1276
21074SOL    HW164663   1.596   0.629   8.573  0.7466  0.1471  0.2611
21074SOL    HW264664   1.689   0.575   8.680  0.2477 -1.0072  0.1232
21075SOL     OW64665   3.758   1.877  10.695  0.5624 -0.5539 -0.0931
21075SOL    HW164666   3.772   1.969  10.672  0.7780 -0.9249 -1.5506
21075SOL    HW264667   3.674   1.876  10.740  1.2526  0.5517  1.2984
21076SOL     OW64668   1.737   1.652   7.844 -0.3867  0.0221 -0.0808
21076SOL    HW164669   1.677   1.682   7.776 -0.2666 -0.2046 -0.2919
21076SOL    HW264670   1.824   1.680   7.814 -0.2495 -0.6908 -0.3778
21077SOL     OW64671   0.423   3.805   6.080  0.1102 -0.2725  0.1541
21077SOL    HW164672   0.350   3.826   6.138  0.7633  0.3071  0.7930
21077SOL    HW264673   0.452   3.891   6.047  1.2992 -0.3502  0.9166
21078SOL     OW64674   3.857   2.436  10.765  0.2059 -0.0708 -0.2346
21078SOL    HW164675   3.824   2.518  10.801 -0.4736 -0.5273  0.1937
21078SOL    HW264676   3.946   2.429  10.800 -0.1981 -0.1650  0.7949
21079SOL     OW64677   7.087   1.399   5.944  0.5824 -0.4819  0.3201
21079SOL    HW164678   7.000   1.413   5.905 -0.8215 -2.2574  2.5555
21079SOL    HW264679   7.073   1.413   6.038  3.0692  0.5084  0.6059
21080SOL     OW64680   0.385   2.642   5.842  0.2590  0.0516 -0.6366
21080SOL    HW164681   0.360   2.551   5.858  1.3218 -0.0130  0.8371
21080SOL    HW264682   0.410   2.644   5.750  0.3204 -1.1802 -0.6637
21081SOL     OW64683   4.165   2.132  10.870 -0.5325  0.2529 -0.0053
21081SOL    HW164684   4.149   2.225  10.851 -3.3735 -0.5195 -2.3163
21081SOL    HW264685   4.078   2.093  10.868  0.7080 -2.7304 -0.8057
21082SOL     OW64686   3.352   2.706   0.144 -0.1055  0.1269  0.0788
21082SOL    HW164687   3.370   2.711   0.051 -0.5610 -0.1798 -0.0325
21082SOL    HW264688   3.404   2.632   0.175 -0.2119  0.0164 -0.0021
21083SOL     OW64689   5.817   6.855   9.619  0.4892 -0.2710 -0.5869
21083SOL    HW164690   5.807   6.884   9.528  0.0176  0.8225 -0.2096
21083SOL    HW264691   5.790   6.931   9.671 -0.6707 -1.3606  0.4635
21084SOL     OW64692   0.915   1.767   7.834 -0.2615 -0.0271 -0.2623
21084SOL    HW164693   0.901   1.858   7.859 -0.0794 -0.1723  0.3799
21084SOL    HW264694   0.882   1.716   7.908 -0.1394 -0.4755 -0.5131
21085SOL     OW64695   6.545   7.403   4.333  0.0689  0.7473  0.4008
21085SOL    HW164696   6.622   7.351   4.353 -0.7546 -0.6591  0.0299
21085SOL    HW264697   6.536   7.399   4.238 -0.0405  1.5198  0.3714
21086SOL     OW64698   2.682   7.515   7.590  0.4251 -0.3129  0.1629
21086SOL    HW164699   2.620   7.453   7.551  1.7093 -0.8080 -1.1877
21086SOL    HW264700   2.713   7.472   7.669 -1.8052  0.4689  1.5759
21087SOL     OW64701   1.174   7.157  12.347  0.0613  0.1888 -0.0720
21087SOL    HW164702   1.130   7.241  12.338 -0.8084 -0.4499 -2.5562
21087SOL    HW264703   1.103   7.095  12.366  0.6365 -0.0942  1.2883
21088SOL     OW64704   1.116   6.166   4.815 -0.2608 -0.1848  0.3493
21088SOL    HW164705   1.066   6.242   4.844 -0.5069 -0.4227  0.5506
21088SOL    HW264706   1.065   6.091   4.846 -0.1768 -0.4332 -0.1135
21089SOL     OW64707   1.444   7.394  11.902 -0.1909 -0.6107  0.4989
21089SOL    HW164708   1.358   7.370  11.939 -0.2396  0.2508  0.9805
21089SOL    HW264709   1.503   7.393  11.977  0.1479 -0.8738  0.2264
21090SOL     OW64710   7.801   3.999   8.163 -0.1556  0.3165  0.3244
21090SOL    HW164711   7.820   4.036   8.249  0.0290 -1.1026  0.9269
21090SOL    HW264712   7.707   3.978   8.166 -0.5124  1.6812 -0.4113
21091SOL     OW64713   5.190   6.679  11.899 -0.5890  0.2784 -0.1130
21091SOL    HW164714   5.279   6.698  11.929 -0.4973  1.0086 -0.8303
21091SOL    HW264715   5.136   6.749  11.936 -1.2270 -1.2120  1.9463
21092SOL     OW64716   6.312   1.646   1.894  0.6904  0.4975  0.1314
21092SOL    HW164717   6.227   1.609   1.870  0.6902 -0.7515  1.9000
21092SOL    HW264718   6.327   1.714   1.828 -0.6115 -0.7608 -1.5736
21093SOL     OW64719   5.990   7.368   5.393 -0.1174  0.0749 -0.0446
21093SOL    HW164720   6.020   7.372   5.302 -0.5344 -0.2398 -0.1923
21093SOL    HW264721   5.933   7.444   5.402  0.2567  0.3459  0.0755
21094SOL     OW64722   4.268   0.813   5.812  0.6954  0.5490  0.7255
21094SOL    HW164723   4.283   0.895   5.859  1.1912  0.3991  0.8348
21094SOL    HW264724   4.177   0.790   5.833  0.2050  1.5962 -0.1499
21095SOL     OW64725   0.694   1.901  10.524  0.0027  0.8561  0.0012
21095SOL    HW164726   0.641   1.921  10.447  0.5236  0.7256 -0.4020
21095SOL    HW264727   0.784   1.900  10.491  0.1632 -0.1036  0.4133
21096SOL     OW64728   6.036   6.102   6.823 -0.5031 -0.5789  0.1789
21096SOL    HW164729   6.011   6.108   6.731 -0.2341  0.3568  0.1514
21096SOL    HW264730   6.091   6.024   6.828  1.7973  0.8307 -1.0503
21097SOL     OW64731   6.731   0.001   1.498  0.1061  0.3245 -0.6987
21097SOL    HW164732   6.751   0.091   1.524  0.8255 -0.0618  0.0967
21097SOL    HW264733   6.798  -0.022   1.434  1.6462 -0.5916  1.1624
21098SOL     OW64734   1.200   7.509   6.655  0.3692  0.3694 -0.2207
21098SOL    HW164735   1.262   7.436   6.664 -0.7973 -0.6010  0.1055
21098SOL    HW264736   1.115   7.467   6.644 -0.4490  1.7020  0.8389
21099SOL     OW64737   7.292   5.038   5.986 -0.4063 -0.4966  0.3733
21099SOL    HW164738   7.238   4.980   6.040 -0.7241  1.3598  2.1678
21099SOL    HW264739   7.359   4.980   5.949 -1.0078 -2.0930  1.6593
21100SOL     OW64740   6.161   5.413  11.694  0.3022  0.4895  0.2265
21100SOL    HW164741   6.209   5.363  11.760 -1.1463 -0.9179  0.2889
21100SOL    HW264742   6.202   5.499  11.694  1.2420  0.0875  1.9566
21101SOL     OW64743   6.730   4.354   3.128  0.0551  0.5882  0.2420
21101SOL    HW164744   6.680   4.274   3.140  0.5343  0.3966  1.1046
21101SOL    HW264745   6.673   4.412   3.079 -1.3374  0.6578  1.8541
21102SOL     OW64746   1.112   4.355   1.482 -0.1660 -0.1713  0.3309
21102SOL    HW164747   1.044   4.350   1.415 -0.3257  0.1133  0.4719
21102SOL    HW264748   1.158   4.271   1.475 -0.1921 -0.1478 -0.1207
21103SOL     OW64749   0.294   0.558  10.605 -0.0684  0.0269  0.8027
21103SOL    HW164750   0.297   0.635  10.549  0.0225 -1.9248 -2.0772
21103SOL    HW264751   0.203   0.529  10.602  0.0452 -0.4087  1.2555
21104SOL     OW64752   7.563   1.433   4.362 -0.3070 -0.5768 -0.1781
21104SOL    HW164753   7.508   1.464   4.434  1.5119 -0.5437  1.2738
21104SOL    HW264754   7.538   1.341   4.350 -2.2970  0.0255 -1.2074
21105SOL     OW64755   4.876   6.180   5.095 -0.0502 -0.8470  0.0896
21105SOL    HW164756   4.841   6.219   5.015  0.6786 -0.1286  0.1129
21105SOL    HW264757   4.970   6.193   5.089 -0.0926  0.5066  1.7294
21106SOL     OW64758   0.090   6.109   7.827  0.3399  0.0162  0.0681
21106SOL    HW164759   0.185   6.117   7.818  0.5323 -2.0720 -0.1245
21106SOL    HW264760   0.056   6.130   7.740  0.6609  0.1138 -0.0370
21107SOL     OW64761   1.973   5.187  10.737 -0.0845 -0.1241  0.6338
21107SOL    HW164762   2.048   5.243  10.757 -0.5626  0.2900  1.3249
21107SOL    HW264763   1.918   5.192  10.815 -1.0210 -0.1197 -0.0099
21108SOL     OW64764   5.458   2.173  11.961  0.0280 -0.3864 -0.0615
21108SOL    HW164765   5.466   2.268  11.952 -0.8266 -0.1908  1.0316
21108SOL    HW264766   5.373   2.153  11.920  0.0917 -0.6430 -0.0662
21109SOL     OW64767   0.022   7.696   9.400 -0.2057 -0.3661  0.4305
21109SOL    HW164768  -0.003   7.735   9.317 -0.3323 -0.4312  0.4375
21109SOL    HW264769   0.099   7.745   9.428 -0.7464  0.3127  0.7517
21110SOL     OW64770   0.276   0.730  10.394  0.3159 -0.3685 -0.9477
21110SOL    HW164771   0.293   0.713  10.302  1.2417 -1.3242 -0.6182
21110SOL    HW264772   0.326   0.810  10.414  0.3188 -0.3066 -1.2072
21111SOL     OW64773   0.713   5.039   2.559 -0.6483 -0.3931  0.4306
21111SOL    HW164774   0.803   5.048   2.525 -1.8028 -0.3614 -3.0636
21111SOL    HW264775   0.694   5.124   2.599  0.3503  0.1958 -0.2842
21112SOL     OW64776   6.668   4.396   9.895 -0.3333  0.1806 -0.3685
21112SOL    HW164777   6.729   4.324   9.905  0.7396  1.1539  0.4063
21112SOL    HW264778   6.686   4.430   9.807 -2.1694 -1.6156 -1.5243
21113SOL     OW64779   3.588   7.963   6.055 -0.0467  0.1877 -0.2854
21113SOL    HW164780   3.548   8.021   5.990 -0.5180  0.0646 -0.1096
21113SOL    HW264781   3.624   7.891   6.003  1.6312  1.2118 -0.6352
21114SOL     OW64782   3.036   0.736   3.257 -0.1344 -0.2895 -0.1508
21114SOL    HW164783   3.120   0.772   3.285 -0.2206 -0.2758  0.0948
21114SOL    HW264784   2.980   0.745   3.334  0.1044 -1.7979  0.2472
21115SOL     OW64785   5.553   2.651   2.889  0.2413  0.5080  0.1328
21115SOL    HW164786   5.563   2.564   2.849  0.3352  0.8867 -0.6806
21115SOL    HW264787   5.459   2.665   2.893  0.2191  0.2923  0.4518
21116SOL     OW64788   0.277   6.875   6.956  0.1890 -0.2562  0.2789
21116SOL    HW164789   0.182   6.873   6.961  0.2309 -0.0591  1.3390
21116SOL    HW264790   0.306   6.796   7.000  0.5913  1.6347  3.7714
21117SOL     OW64791   0.633   7.054   9.313 -0.0774 -0.5424 -0.1507
21117SOL    HW164792   0.672   7.112   9.379  1.9041 -2.6911  0.7197
21117SOL    HW264793   0.677   7.078   9.232 -0.0368 -0.1459 -0.0175
21118SOL     OW64794   7.938   2.473   2.355  0.7839  0.2173 -0.8073
21118SOL    HW164795   7.958   2.566   2.344 -0.6475  0.7724  0.6943
21118SOL    HW264796   8.022   2.428   2.345  1.9855  1.9274  0.8695
21119SOL     OW64797   7.254   1.617   9.940 -0.0350  0.3198  0.6768
21119SOL    HW164798   7.199   1.670   9.882  0.9579  1.1564  0.4798
21119SOL    HW264799   7.200   1.603  10.018 -0.4443  1.3206  0.5877
21120SOL     OW64800   1.588   5.647   0.800 -0.0645  0.2244 -0.1928
21120SOL    HW164801   1.669   5.691   0.774 -0.4145  0.2869 -1.1893
21120SOL    HW264802   1.617   5.565   0.839  0.6697  1.5990  2.4648
21121SOL     OW64803   5.584   1.146  11.369  0.2526 -0.2806 -0.2270
21121SOL    HW164804   5.557   1.232  11.400 -0.5950 -0.5353 -0.2422
21121SOL    HW264805   5.510   1.089  11.388 -0.2684 -0.4744 -2.5425
21122SOL     OW64806   6.122   4.390   0.958 -0.2872 -0.4425  0.2199
21122SOL    HW164807   6.066   4.426   1.027 -0.8653 -1.8026  0.5066
21122SOL    HW264808   6.137   4.299   0.985  1.6490 -0.2631 -0.1290
21123SOL     OW64809   3.716   0.754   1.165 -0.2621 -0.5436 -0.0241
21123SOL    HW164810   3.797   0.802   1.180  0.3160 -0.8538 -1.8574
21123SOL    HW264811   3.649   0.822   1.160  0.2047 -0.1014 -0.3994
21124SOL     OW64812   4.782   4.129   1.981 -0.3923 -0.3703  0.1297
21124SOL    HW164813   4.793   4.131   2.076  1.1007 -1.3613  0.0157
21124SOL    HW264814   4.803   4.039   1.957  0.2806  0.1291 -1.2438
21125SOL     OW64815   4.955   3.078   1.308  0.1146  0.1449 -0.0678
21125SOL    HW164816   4.960   3.037   1.394 -0.4919 -2.2556 -1.1079
21125SOL    HW264817   4.901   3.019   1.256 -1.7925  2.8440 -1.3976
21126SOL     OW64818   5.185   1.204   7.142  0.1886  0.9931 -0.1656
21126SOL    HW164819   5.197   1.146   7.217 -0.5491 -0.5772 -1.2204
21126SOL    HW264820   5.257   1.267   7.148  1.0154 -0.0341  1.0091
21127SOL     OW64821   1.430   1.696   1.616 -0.6813  0.3920  0.5424
21127SOL    HW164822   1.487   1.765   1.582 -2.5940  1.5534 -0.4857
21127SOL    HW264823   1.398   1.730   1.699 -1.4669  0.6736  0.1320
21128SOL     OW64824   0.393   2.778   4.896 -0.4416 -0.4738 -0.9151
21128SOL    HW164825   0.343   2.697   4.906  0.0445 -0.5154  2.3311
21128SOL    HW264826   0.482   2.756   4.923 -0.3365  1.1233  0.2513
21129SOL     OW64827   4.596   5.233  11.808 -0.4915 -0.1863 -0.2189
21129SOL    HW164828   4.559   5.257  11.723 -1.7526 -3.4661 -0.7416
21129SOL    HW264829   4.691   5.236  11.794 -0.6447  0.7913 -1.2382
21130SOL     OW64830   5.893   2.031  10.448 -0.2381 -0.1308  0.6255
21130SOL    HW164831   5.798   2.022  10.447 -0.3503  0.9652 -0.1503
21130SOL    HW264832   5.925   1.956  10.398 -0.5436 -1.6840  2.6303
21131SOL     OW64833   6.084   1.484   2.384 -0.2010  1.0960  0.1225
21131SOL    HW164834   5.998   1.485   2.341  0.4644  0.1882 -1.3385
21131SOL    HW264835   6.146   1.492   2.312  0.9659  0.3962  1.0168
21132SOL     OW64836   0.796   0.600   0.202 -0.0021  0.7674  0.3444
21132SOL    HW164837   0.817   0.681   0.155  0.5006  1.3699  1.5669
21132SOL    HW264838   0.878   0.574   0.243 -0.1254 -0.4571 -0.1274
21133SOL     OW64839   1.255   5.882   2.936  0.1586  0.4310 -0.5588
21133SOL    HW164840   1.187   5.846   2.879  0.3810  2.1002 -1.9663
21133SOL    HW264841   1.324   5.910   2.876  0.8916  1.2583  0.6314
21134SOL     OW64842   0.707   1.749   9.428 -0.0444 -0.0208  0.1034
21134SOL    HW164843   0.776   1.788   9.376 -0.6444  1.3868  0.3205
21134SOL    HW264844   0.749   1.676   9.474  1.8079  1.9830  1.7598
21135SOL     OW64845   0.531   0.144   4.617 -0.8402 -0.0787 -0.5071
21135SOL    HW164846   0.519   0.056   4.654 -2.2152 -0.6936 -2.2688
21135SOL    HW264847   0.460   0.195   4.654 -0.0103  0.3513  0.5571
21136SOL     OW64848   2.484   1.110   2.700 -0.0160 -0.0191  0.4381
21136SOL    HW164849   2.414   1.046   2.688  0.6749 -0.4334 -1.9803
21136SOL    HW264850   2.463   1.181   2.639  1.4744 -0.0277 -0.1494
21137SOL     OW64851   6.483   6.766   6.456  0.3014  0.3830 -0.4818
21137SOL    HW164852   6.469   6.707   6.382  0.9534  0.1557 -0.4258
21137SOL    HW264853   6.470   6.712   6.534 -1.5331  0.8767 -0.3876
21138SOL     OW64854   0.675   3.035   2.934  0.1226 -0.2408 -0.1800
21138SOL    HW164855   0.724   3.012   2.855 -0.2395 -0.5126 -0.3284
21138SOL    HW264856   0.585   3.049   2.904  0.2728  1.1347 -0.0547
21139SOL     OW64857   3.275   0.952   1.406  0.1251  0.1056 -0.3010
21139SOL    HW164858   3.328   1.024   1.440 -0.0329 -0.4480  1.1619
21139SOL    HW264859   3.226   0.991   1.334  1.5804  0.9325 -0.9007
21140SOL     OW64860   0.739   3.621   1.683  0.5692  0.1851 -0.2214
21140SOL    HW164861   0.695   3.667   1.755 -0.3250  1.3939 -1.4819
21140SOL    HW264862   0.713   3.530   1.694  0.3520  0.3590  0.9112
21141SOL     OW64863   6.107   7.364   7.320  0.0988  0.2691 -0.0456
21141SOL    HW164864   6.014   7.387   7.330  0.1741 -0.0754  1.8633
21141SOL    HW264865   6.150   7.447   7.300 -0.2726  1.0308  2.0139
21142SOL     OW64866   0.946   5.119   2.175 -0.4667  0.0451 -0.2501
21142SOL    HW164867   0.938   5.087   2.265  1.0814 -1.3097 -0.5644
21142SOL    HW264868   0.916   5.047   2.121  2.5597 -0.8063 -0.9492
21143SOL     OW64869   6.422   2.476   9.864  0.4688 -0.7767 -0.1873
21143SOL    HW164870   6.477   2.440   9.934 -1.5272  0.1965  2.0199
21143SOL    HW264871   6.365   2.403   9.839  0.0212 -0.6509  0.4536
21144SOL     OW64872   3.602   5.057   5.406  0.2868 -0.0022  0.6064
21144SOL    HW164873   3.622   4.974   5.448  2.0807  0.0411 -0.0660
21144SOL    HW264874   3.659   5.059   5.329 -1.4212  0.8178 -0.7024
21145SOL     OW64875   6.769   2.681  12.419 -0.5357  0.6312  0.2706
21145SOL    HW164876   6.768   2.591  12.385 -1.3522  0.5384  0.5200
21145SOL    HW264877   6.680   2.696  12.451  0.2126  0.6425  2.5383
21146SOL     OW64878   1.489   0.295   5.567 -0.1807 -0.3308 -0.0772
21146SOL    HW164879   1.510   0.261   5.653  1.5836 -0.1133 -0.3850
21146SOL    HW264880   1.398   0.270   5.552 -0.2005 -1.2275  1.4211
21147SOL     OW64881   7.770   6.432   3.147  0.2870 -0.3915 -0.2971
21147SOL    HW164882   7.858   6.443   3.181 -0.1697 -0.6299  1.0312
21147SOL    HW264883   7.776   6.356   3.089  0.4955 -2.0043  1.6912
21148SOL     OW64884   0.995   7.179   8.978 -0.1727 -0.1052  0.3021
21148SOL    HW164885   0.975   7.174   9.072  0.3497  0.9995  0.4885
21148SOL    HW264886   1.086   7.209   8.975 -0.5221  0.9220 -0.5606
21149SOL     OW64887   3.345   6.276   1.077  0.3643 -0.3011  0.4686
21149SOL    HW164888   3.434   6.242   1.083 -0.9656 -3.9572  2.2645
21149SOL    HW264889   3.331   6.321   1.160  0.9110  1.5977 -0.4099
21150SOL     OW64890   6.509   3.036  10.701  0.2270  0.0116  0.0725
21150SOL    HW164891   6.473   2.948  10.709 -0.6102  0.2899 -0.4241
21150SOL    HW264892   6.601   3.028  10.727  0.4655 -1.2280 -1.0758
21151SOL     OW64893   0.504   5.053   9.992  0.9272  0.0018  0.0853
21151SOL    HW164894   0.505   5.015   9.905  1.1692  0.0400  0.0705
21151SOL    HW264895   0.565   5.126   9.987  2.1848 -0.9697  0.7159
21152SOL     OW64896   3.686   2.969   2.767  0.1951 -0.0609 -0.8957
21152SOL    HW164897   3.639   2.981   2.850  3.3964 -0.3720  1.1230
21152SOL    HW264898   3.736   3.050   2.757 -0.6048  0.2212 -2.9106
21153SOL     OW64899   3.254   3.573  11.050  0.3344 -0.6248  0.1525
21153SOL    HW164900   3.197   3.627  11.106  1.7814  0.1144  0.9920
21153SOL    HW264901   3.194   3.519  10.999 -1.1732  1.2544 -0.1746
21154SOL     OW64902   7.620   1.732   9.379  0.1335 -0.0849  0.7752
21154SOL    HW164903   7.539   1.769   9.343  0.1769  1.3769  2.0316
21154SOL    HW264904   7.604   1.728   9.474  1.0872 -0.9701  0.9170
21155SOL     OW64905   5.344   3.717   2.896 -0.3056 -0.2570  0.2199
21155SOL    HW164906   5.348   3.790   2.835  0.3513 -0.1627  0.3698
21155SOL    HW264907   5.412   3.736   2.961 -0.0254 -1.0671  0.1755
21156SOL     OW64908   7.162   3.555   7.930  0.3296 -0.2366 -0.0691
21156SOL    HW164909   7.071   3.582   7.917  0.0616 -1.2396 -0.3508
21156SOL    HW264910   7.178   3.491   7.861  1.3435  0.1245 -0.1883
21157SOL     OW64911   5.856   7.505   7.355 -1.0301  0.5536  0.3420
21157SOL    HW164912   5.837   7.477   7.445 -2.4104  3.0777  0.9143
21157SOL    HW264913   5.771   7.513   7.313 -0.4100 -0.3492 -1.1629
21158SOL     OW64914   7.614   4.380   2.098  0.4965  0.0958  0.9020
21158SOL    HW164915   7.608   4.328   2.018  1.4938  3.4628 -1.5807
21158SOL    HW264916   7.700   4.420   2.094 -0.1017  1.7240  2.7907
21159SOL     OW64917   0.951   2.409   7.990 -0.7256 -0.1728  0.0499
21159SOL    HW164918   0.983   2.340   8.048  0.3165  0.7929  0.6643
21159SOL    HW264919   0.881   2.368   7.940 -0.5680 -1.4823  0.8660
21160SOL     OW64920   7.893   4.642   4.310  0.1037  0.0111  0.3911
21160SOL    HW164921   7.866   4.615   4.398  1.4507 -0.4559  0.6748
21160SOL    HW264922   7.841   4.586   4.252 -0.0161 -0.4346  0.9107
21161SOL     OW64923   6.615   1.670   7.213 -0.1411  0.0186  0.0880
21161SOL    HW164924   6.568   1.621   7.145  0.9455 -1.1393  0.1374
21161SOL    HW264925   6.604   1.617   7.292 -0.5842  0.8642  0.6049
21162SOL     OW64926   1.238   0.671   4.888  0.4167  0.3755  0.3970
21162SOL    HW164927   1.330   0.695   4.896  0.2898  1.2116 -0.5103
21162SOL    HW264928   1.191   0.745   4.927  0.1383 -0.3023  1.3696
21163SOL     OW64929   3.654   3.134   6.156  0.4568  0.1671  0.1008
21163SOL    HW164930   3.560   3.146   6.166  0.1627 -1.8508  0.1947
21163SOL    HW264931   3.669   3.139   6.062  0.2137  0.2948  0.0680
21164SOL     OW64932   3.021   3.964   9.705  0.1262 -0.0538 -0.1501
21164SOL    HW164933   3.054   3.890   9.756 -0.1398  0.2794  0.5210
21164SOL    HW264934   3.064   3.956   9.620 -1.5609 -2.2402 -0.8752
21165SOL     OW64935   1.963   7.181   5.632 -0.2171  0.2846 -0.6338
21165SOL    HW164936   1.907   7.248   5.592 -1.6339 -1.3079 -1.4463
21165SOL    HW264937   2.008   7.141   5.557  0.8302  0.4789 -0.1283
21166SOL     OW64938   5.802   5.218   2.723  0.4942 -0.2058  0.1004
21166SOL    HW164939   5.734   5.286   2.723 -0.2446 -0.9169  0.7712
21166SOL    HW264940   5.883   5.265   2.706 -0.1335  0.7008 -0.5033
21167SOL     OW64941   3.763   7.802   2.294 -0.2103 -0.4530 -0.3122
21167SOL    HW164942   3.762   7.731   2.357  0.1573 -0.4047 -0.2490
21167SOL    HW264943   3.836   7.858   2.321  0.0823 -0.5380 -0.8884
21168SOL     OW64944   7.241   3.278   1.098  0.6882  0.3558  0.0203
21168SOL    HW164945   7.325   3.266   1.052 -0.2494 -0.2589 -1.6367
21168SOL    HW264946   7.210   3.364   1.069  0.7182  0.5668  0.6031
21169SOL     OW64947   1.347   2.619   1.297  0.2107  0.1743  0.1255
21169SOL    HW164948   1.372   2.537   1.254 -0.4433 -1.2654  2.3282
21169SOL    HW264949   1.277   2.655   1.241  1.3941 -0.0402 -1.5626
21170SOL     OW64950   1.238   0.290  10.258 -0.2786 -0.0989  0.3782
21170SOL    HW164951   1.304   0.247  10.312 -0.0459  0.2399  0.3666
21170SOL    HW264952   1.174   0.221  10.239  0.2759 -0.5307  0.0542
21171SOL     OW64953   3.418   4.828   0.528 -0.1846  0.0732  0.4130
21171SOL    HW164954   3.493   4.826   0.469 -0.8255 -1.7542 -0.4356
21171SOL    HW264955   3.376   4.912   0.511  1.3881  0.9335  0.5865
21172SOL     OW64956   5.212   5.188   8.419  0.6406  0.2314  0.0242
21172SOL    HW164957   5.123   5.181   8.454  0.3778  1.0792 -0.4367
21172SOL    HW264958   5.265   5.211   8.495  0.0860  2.0017 -0.0848
21173SOL     OW64959   3.728   7.828   2.008  0.5093  0.0114  0.3525
21173SOL    HW164960   3.733   7.831   2.104  0.3969 -0.1257  0.3636
21173SOL    HW264961   3.816   7.806   1.980  0.6105  0.3443  0.4119
21174SOL     OW64962   3.784   7.189   1.366 -0.3769 -0.1110  0.0466
21174SOL    HW164963   3.735   7.131   1.424 -0.7474  0.3055  0.1493
21174SOL    HW264964   3.858   7.220   1.419 -0.9129  0.5528  0.4198
21175SOL     OW64965   5.455   6.729   5.445 -0.0223 -0.1855 -0.4005
21175SOL    HW164966   5.497   6.700   5.364  2.3704  0.9079  0.3634
21175SOL    HW264967   5.416   6.650   5.482  2.1802 -1.4880 -0.7187
21176SOL     OW64968   4.594   2.494   0.725 -0.0987 -0.3486  0.3167
21176SOL    HW164969   4.650   2.425   0.761  0.6049 -0.0486 -0.1718
21176SOL    HW264970   4.654   2.550   0.676 -1.0790 -1.0420 -1.7848
21177SOL     OW64971   2.199   3.116   8.276  0.4100 -0.3525 -0.6157
21177SOL    HW164972   2.169   3.030   8.246 -0.1487 -1.0307  1.7208
21177SOL    HW264973   2.294   3.107   8.282  0.3143 -0.9815  0.0854
21178SOL     OW64974   4.312   5.962   0.810 -0.2057 -0.1631 -0.3178
21178SOL    HW164975   4.328   5.868   0.801  2.1956  0.3581 -3.1755
21178SOL    HW264976   4.354   5.986   0.893 -0.5434 -1.5125  0.2712
21179SOL     OW64977   4.757   3.652   0.199 -0.1803 -0.0131 -0.0266
21179SOL    HW164978   4.690   3.643   0.267  1.6835  0.0247  1.9016
21179SOL    HW264979   4.762   3.565   0.159 -1.2560 -0.0597 -0.0867
21180SOL     OW64980   1.032   2.753   4.181 -0.4401  0.2805  0.3579
21180SOL    HW164981   1.007   2.719   4.095 -0.4597 -0.5045  0.6572
21180SOL    HW264982   1.077   2.680   4.223  0.3214  0.9370  0.7016
21181SOL     OW64983   3.948   1.982   0.770 -0.0244 -0.3611  0.0890
21181SOL    HW164984   3.898   1.981   0.852 -0.2349 -0.0430 -0.0327
21181SOL    HW264985   3.984   1.893   0.763 -1.0037 -0.7566 -0.0832
21182SOL     OW64986   7.346   1.990   5.523  0.0918  0.0583 -0.5054
21182SOL    HW164987   7.366   1.944   5.442  2.5274  0.2195 -0.0529
21182SOL    HW264988   7.376   1.932   5.593 -0.3374  0.6837  0.2201
21183SOL     OW64989   1.046   7.808   3.741  0.6032 -0.3920  0.0131
21183SOL    HW164990   1.028   7.896   3.707 -2.3094 -0.3300  1.4286
21183SOL    HW264991   1.029   7.814   3.835 -1.6374 -2.8493 -0.1214
21184SOL     OW64992   5.469   3.152   3.218  0.0343 -0.4837 -0.5695
21184SOL    HW164993   5.452   3.225   3.158  0.0216  1.1477  1.3126
21184SOL    HW264994   5.393   3.151   3.277  0.6753 -1.1599  0.2658
21185SOL     OW64995   3.175   1.206   6.739  0.0606  0.2740  0.1482
21185SOL    HW164996   3.189   1.121   6.781 -2.4727 -1.0751 -1.4892
21185SOL    HW264997   3.081   1.221   6.747  0.1575  1.9344 -1.3930
21186SOL     OW64998   5.366   6.451   3.526  0.3566  0.1576  0.2216
21186SOL    HW164999   5.333   6.536   3.497 -0.3952  0.4192  1.7548
21186SOL    HW265000   5.388   6.405   3.445 -0.2339  1.4097 -0.6799
21187SOL     OW65001   1.152   1.678   7.037  0.3171 -0.3605  0.1009
21187SOL    HW165002   1.135   1.749   6.976  0.3002 -0.7891 -0.4040
21187SOL    HW265003   1.165   1.601   6.981  0.5558 -0.7087  0.6248
21188SOL     OW65004   0.315   6.143   3.785  0.0520  0.3221 -0.5759
21188SOL    HW165005   0.229   6.186   3.786 -0.3167 -0.3123 -2.0310
21188SOL    HW265006   0.299   6.060   3.740  1.6006  0.5485 -1.5899
21189SOL     OW65007   0.623   4.456  12.387 -0.4349  0.2371 -0.0821
21189SOL    HW165008   0.566   4.527  12.417  0.5485  0.5291  1.1370
21189SOL    HW265009   0.711   4.494  12.386  0.2808 -1.2309  1.6495
21190SOL     OW65010   6.082   2.677  10.832  0.4103  0.0262  0.3342
21190SOL    HW165011   5.997   2.715  10.811  0.5209 -0.7426 -1.7233
21190SOL    HW265012   6.062   2.606  10.893 -0.4783 -0.3086 -0.3277
21191SOL     OW65013   7.357   3.415   9.606  0.6084 -0.1215  0.6316
21191SOL    HW165014   7.384   3.444   9.519 -1.3469  1.7701  0.5776
21191SOL    HW265015   7.338   3.321   9.595  2.8055 -0.5263 -0.3040
21192SOL     OW65016   7.291   2.752   7.465  0.0488  0.3069 -0.1598
21192SOL    HW165017   7.286   2.657   7.467  0.7217  0.2266  3.5235
21192SOL    HW265018   7.384   2.770   7.449 -0.2145  0.4357 -1.7317
21193SOL     OW65019   7.615   3.277   6.175  0.2666 -0.0134  0.2709
21193SOL    HW165020   7.589   3.347   6.114 -0.8134  0.7907  1.5928
21193SOL    HW265021   7.547   3.278   6.242  1.0735 -1.3279  1.1384
21194SOL     OW65022   1.252   2.194   9.255 -0.2235 -0.3071 -0.3067
21194SOL    HW165023   1.343   2.217   9.274 -0.7688  0.9556  0.8966
21194SOL    HW265024   1.258   2.140   9.176  1.5668 -0.3047 -0.2270
21195SOL     OW65025   5.590   0.002   8.008 -0.1898 -0.0779  0.1277
21195SOL    HW165026   5.538   0.082   8.019  2.1225  1.5485 -0.2595
21195SOL    HW265027   5.673   0.031   7.971  0.7069 -2.6935 -0.1350
21196SOL     OW65028   7.852   3.242   0.702 -0.0777 -0.1500 -0.9554
21196SOL    HW165029   7.838   3.327   0.743 -1.8564 -0.4719 -0.7830
21196SOL    HW265030   7.845   3.260   0.608  0.5119  0.0405 -0.9644
21197SOL     OW65031   2.897   5.635   6.694 -0.3698 -0.1056 -0.3415
21197SOL    HW165032   2.897   5.637   6.598  1.4944 -0.5166 -0.3847
21197SOL    HW265033   2.977   5.587   6.717  0.0180  1.2763  1.4294
21198SOL     OW65034   0.670   0.263   2.901  0.2814 -0.1601 -0.5894
21198SOL    HW165035   0.599   0.268   2.838  0.4934 -2.1616 -1.0663
21198SOL    HW265036   0.740   0.317   2.864 -0.3083  0.2947 -1.0522
21199SOL     OW65037   3.145   2.989  11.909  0.1574 -0.0489  0.2897
21199SOL    HW165038   3.096   2.988  11.991  2.7687  1.3755  2.0502
21199SOL    HW265039   3.184   2.902  11.904  0.7782  0.1601  1.1471
21200SOL     OW65040   2.183   0.737   5.704  0.3934  0.3725 -0.6586
21200SOL    HW165041   2.194   0.711   5.795  2.3758  2.1911 -0.2864
21200SOL    HW265042   2.268   0.720   5.663 -0.7434 -1.4055 -2.5208
21201SOL     OW65043   5.507   0.389   6.172  0.2328  0.1958 -0.6424
21201SOL    HW165044   5.561   0.458   6.210 -0.5684 -0.0009  0.9552
21201SOL    HW265045   5.528   0.311   6.224  0.7212 -0.6500 -2.0634
21202SOL     OW65046   1.906   0.080  11.409 -0.4824 -0.3485 -0.4533
21202SOL    HW165047   1.960   0.065  11.332  0.3244  0.5329 -0.0745
21202SOL    HW265048   1.966   0.072  11.483 -0.7542  1.0451 -0.0476
21203SOL     OW65049   4.110   5.498   1.136  0.0769 -0.1074  0.2368
21203SOL    HW165050   4.079   5.563   1.200 -0.6167 -1.1063  0.9485
21203SOL    HW265051   4.042   5.431   1.136  0.0076 -0.0681 -1.6756
21204SOL     OW65052   3.502   5.356   7.837 -1.1331 -0.4181 -0.3707
21204SOL    HW165053   3.579   5.405   7.865 -0.1306 -2.2357  0.2072
21204SOL    HW265054   3.428   5.405   7.874 -0.1896  0.5401  0.3182
21205SOL     OW65055   6.156   7.406  10.841 -0.2386  0.1310 -0.3945
21205SOL    HW165056   6.102   7.439  10.913 -0.2481  0.7022 -0.6583
21205SOL    HW265057   6.233   7.463  10.840  0.2199 -0.4731 -0.2349
21206SOL     OW65058   6.302   7.502   6.920 -0.0521 -0.4726  0.0197
21206SOL    HW165059   6.345   7.488   6.836 -2.4377  0.3920 -1.4364
21206SOL    HW265060   6.222   7.450   6.915  0.1416 -1.0633  2.1266
21207SOL     OW65061   5.703   4.036   1.866  0.2307  0.2634 -0.4526
21207SOL    HW165062   5.726   4.031   1.959 -2.8831  1.6849  0.4988
21207SOL    HW265063   5.645   3.962   1.852  0.8219 -0.0482 -1.3623
21208SOL     OW65064   4.150   7.743   2.342  0.1796  0.5478 -0.1089
21208SOL    HW165065   4.132   7.688   2.266 -0.7503  0.8166 -0.0921
21208SOL    HW265066   4.078   7.807   2.343 -0.5192 -0.2176  1.7095
21209SOL     OW65067   3.396   2.073   4.514  0.1450  0.3860  0.2709
21209SOL    HW165068   3.332   2.057   4.446  0.3710  1.4915 -0.2273
21209SOL    HW265069   3.363   2.149   4.561  0.9185  0.7789  0.2019
21210SOL     OW65070   4.918   2.326  11.351  0.0172  0.1813 -0.7761
21210SOL    HW165071   4.996   2.312  11.404  0.5598  0.1837 -1.5496
21210SOL    HW265072   4.944   2.296  11.263 -0.9843 -0.1977 -0.9468
21211SOL     OW65073   2.442   5.661   0.444 -0.1023  0.4859 -0.1268
21211SOL    HW165074   2.457   5.711   0.363  0.4400  1.4917  0.5793
21211SOL    HW265075   2.436   5.570   0.414  0.5032  0.7940 -1.2623
21212SOL     OW65076   6.081   5.741   2.587 -0.1994  0.4759 -0.0911
21212SOL    HW165077   6.064   5.818   2.532 -0.8862 -0.5029 -1.3155
21212SOL    HW265078   6.125   5.776   2.664 -0.5211  2.0976 -0.5941
21213SOL     OW65079   4.904   0.982   0.073 -0.3552 -0.0181  0.2987
21213SOL    HW165080   4.964   0.985   0.148 -0.5203  0.9298  0.4019
21213SOL    HW265081   4.818   0.967   0.113 -0.4232  0.3391  0.2816
21214SOL     OW65082   6.309   4.737   6.196 -0.3225 -0.4636  0.2739
21214SOL    HW165083   6.333   4.676   6.266  0.6560 -0.3162  0.0860
21214SOL    HW265084   6.321   4.824   6.236 -1.7652 -0.3779  0.5612
21215SOL     OW65085   6.478   3.572   8.415 -0.1705  0.6104  0.6012
21215SOL    HW165086   6.514   3.484   8.407  1.4574  1.3272 -0.3173
21215SOL    HW265087   6.552   3.627   8.440 -0.8463  1.9308 -0.1604
21216SOL     OW65088   2.386   5.365   5.885  0.0871  0.6532 -0.7251
21216SOL    HW165089   2.315   5.415   5.845 -0.7019 -1.2262 -1.8404
21216SOL    HW265090   2.446   5.346   5.813  0.1120 -0.3775 -0.4623
21217SOL     OW65091   1.807   3.244   9.663  0.0291 -0.2839  0.3395
21217SOL    HW165092   1.807   3.329   9.619  0.4133 -0.6060 -0.2987
21217SOL    HW265093   1.893   3.207   9.642 -0.4822 -1.2125 -0.1432
21218SOL     OW65094   4.653   2.831   7.837 -0.6971 -0.8165 -0.0934
21218SOL    HW165095   4.704   2.854   7.759 -1.0379  3.1362  0.6480
21218SOL    HW265096   4.563   2.820   7.805 -0.8508  0.8804 -0.3503
21219SOL     OW65097   3.466   0.841   5.470 -0.2899  0.3381 -0.1572
21219SOL    HW165098   3.533   0.779   5.440  1.0223  1.9728 -0.8070
21219SOL    HW265099   3.426   0.798   5.545  1.1002 -0.9618 -0.1021
21220SOL     OW65100   0.157   7.241  10.386 -1.0778  0.6931  0.2143
21220SOL    HW165101   0.075   7.191  10.388 -0.5358 -0.2631 -0.7191
21220SOL    HW265102   0.189   7.238  10.476 -1.1182 -0.5412  0.2063
21221SOL     OW65103   3.540   7.664  10.204  0.5364  0.6692 -0.3306
21221SOL    HW165104   3.596   7.709  10.268  0.3947  0.2332  0.1021
21221SOL    HW265105   3.472   7.728  10.183  0.9679  1.0595 -0.5618
21222SOL     OW65106   4.726   0.676   6.624 -0.2393  0.0381 -0.9181
21222SOL    HW165107   4.713   0.740   6.554  0.2456  0.1158 -0.9389
21222SOL    HW265108   4.819   0.654   6.620  0.0232  0.7970  0.3316
21223SOL     OW65109   6.179   3.375   8.366 -0.5788 -0.2080  0.5092
21223SOL    HW165110   6.269   3.346   8.353 -0.9340 -1.2773  0.3435
21223SOL    HW265111   6.187   3.467   8.392  0.6259 -0.6067  1.6619
21224SOL     OW65112   6.501   7.077   7.316  0.7433  0.4218  0.1701
21224SOL    HW165113   6.524   7.023   7.392  0.1363 -0.3354 -0.1705
21224SOL    HW265114   6.557   7.043   7.246  0.0259 -0.0799 -0.1619
21225SOL     OW65115   6.917   2.149   1.473  0.1587  0.0818  0.6905
21225SOL    HW165116   6.896   2.220   1.534 -0.3031  1.7636 -1.3065
21225SOL    HW265117   7.011   2.137   1.480  0.0163 -0.2882  2.2473
21226SOL     OW65118   0.610   4.169  12.311 -0.4693 -0.6017 -0.3866
21226SOL    HW165119   0.607   4.251  12.360  0.4247 -0.1370 -1.0746
21226SOL    HW265120   0.703   4.145  12.308 -0.1537  0.4573 -3.5046
21227SOL     OW65121   2.668   2.344  10.668 -0.2322  0.4652 -0.5687
21227SOL    HW165122   2.741   2.328  10.608  1.5545  0.6740  1.4525
21227SOL    HW265123   2.636   2.431  10.643  1.2655  1.0811 -0.4761
21228SOL     OW65124   6.565   1.655   0.880 -0.7046 -0.3408  0.1571
21228SOL    HW165125   6.628   1.582   0.881 -1.6930 -1.2012  0.6424
21228SOL    HW265126   6.615   1.729   0.913  0.6827 -0.4774 -1.4707
21229SOL     OW65127   3.753   5.730   8.854  0.5343 -0.1542 -0.2771
21229SOL    HW165128   3.804   5.670   8.799 -0.7507 -1.4502 -0.1097
21229SOL    HW265129   3.779   5.708   8.944  0.1891 -0.3356 -0.2222
21230SOL     OW65130   1.847   4.904   7.494 -0.0793 -0.0351 -0.0803
21230SOL    HW165131   1.846   4.810   7.510  0.2419 -0.2583 -1.2798
21230SOL    HW265132   1.789   4.917   7.419 -0.2116  0.7364  0.1454
21231SOL     OW65133   4.097   0.296   4.180 -0.1068  0.1562  0.1711
21231SOL    HW165134   4.140   0.273   4.098 -0.6432 -0.0199 -0.0632
21231SOL    HW265135   4.004   0.286   4.163 -0.2669  0.8138  0.5905
21232SOL     OW65136   7.608   7.963   3.015 -0.3212 -0.6288  0.3083
21232SOL    HW165137   7.657   7.881   3.018  0.9168  0.0836  0.0045
21232SOL    HW265138   7.560   7.960   2.932 -0.9577 -1.4106  0.6928
21233SOL     OW65139   4.600   6.206   6.208  0.4378 -0.3409 -0.1827
21233SOL    HW165140   4.580   6.135   6.269 -0.2949 -1.4066 -1.5926
21233SOL    HW265141   4.520   6.218   6.157  0.9006  0.7787 -0.6915
21234SOL     OW65142   0.525   6.356  10.232  0.1456 -0.5741 -0.0859
21234SOL    HW165143   0.539   6.328  10.322  1.0091  0.6865  0.2053
21234SOL    HW265144   0.563   6.444  10.228 -3.2640  1.0361 -0.6783
21235SOL     OW65145   4.078   1.220   9.372 -0.5283 -0.0420  0.2029
21235SOL    HW165146   4.141   1.284   9.340  0.0213 -0.6895 -0.0385
21235SOL    HW265147   4.112   1.135   9.343 -0.6119 -0.5585  1.5239
21236SOL     OW65148   7.624   5.471   3.573 -0.2104 -0.3026  0.2708
21236SOL    HW165149   7.550   5.477   3.512 -1.2507 -0.5470  1.4749
21236SOL    HW265150   7.645   5.562   3.596  0.6477 -0.1656 -0.9526
21237SOL     OW65151   3.387   7.197   7.113  0.5638  0.6524 -0.0375
21237SOL    HW165152   3.473   7.154   7.111  0.2145 -0.0358 -0.3116
21237SOL    HW265153   3.366   7.201   7.207  0.3968 -0.1930 -0.0285
21238SOL     OW65154   2.035   1.143   4.295  1.0727  0.6603 -0.0866
21238SOL    HW165155   2.126   1.129   4.267  0.4656  0.7700 -2.3152
21238SOL    HW265156   1.995   1.056   4.290  1.5702  0.0746  3.3763
21239SOL     OW65157   6.715   7.538   7.760 -0.5891  0.3802 -0.2459
21239SOL    HW165158   6.639   7.594   7.780 -0.0093  1.2630 -0.4714
21239SOL    HW265159   6.682   7.449   7.773 -0.7843  0.7860  2.9596
21240SOL     OW65160   1.528   1.324   6.158  0.3863  0.3382  0.4810
21240SOL    HW165161   1.470   1.398   6.139  2.0209  1.5167 -0.0832
21240SOL    HW265162   1.546   1.286   6.072 -0.9240 -1.1557  0.8129
21241SOL     OW65163   6.721   6.303  10.607 -0.1178  0.2943  0.3829
21241SOL    HW165164   6.798   6.263  10.565  0.3064  0.1769  1.2329
21241SOL    HW265165   6.652   6.237  10.598  0.4610 -0.4880  1.3983
21242SOL     OW65166   0.912   0.828   4.697  0.3906 -0.2217  0.5539
21242SOL    HW165167   0.957   0.910   4.678  0.0289 -0.0714  0.3350
21242SOL    HW265168   0.895   0.790   4.611  0.3975 -0.4375  0.6484
21243SOL     OW65169   2.222   2.063   5.346  0.7549  0.1190  0.6466
21243SOL    HW165170   2.169   2.124   5.294  1.5526  0.2754 -0.0002
21243SOL    HW265171   2.311   2.098   5.341  0.8183  0.2891  2.3592
21244SOL     OW65172   6.476   5.878   3.772  0.4756  0.5256 -0.6167
21244SOL    HW165173   6.518   5.962   3.757 -1.3934  1.5570 -0.4351
21244SOL    HW265174   6.510   5.849   3.857  0.8655  1.2883 -0.5041
21245SOL     OW65175   3.569   2.553   4.576  0.2931  0.2124  0.3798
21245SOL    HW165176   3.579   2.461   4.554  0.5078  0.3908 -0.3092
21245SOL    HW265177   3.490   2.557   4.629  0.0773 -0.3205  0.1068
21246SOL     OW65178   2.455   5.158  10.716  0.2543  0.2527 -0.7912
21246SOL    HW165179   2.450   5.107  10.797  0.7070  1.6081  0.1165
21246SOL    HW265180   2.515   5.109  10.660  0.4706 -0.3451 -0.0437
21247SOL     OW65181   5.635   4.294   2.469  0.1419  0.2210 -0.7550
21247SOL    HW165182   5.545   4.271   2.493  0.5206  1.1538  1.9550
21247SOL    HW265183   5.682   4.210   2.471 -0.1446  0.0610  0.6809
21248SOL     OW65184   5.254   2.080   9.835 -0.0306  0.3645 -0.3546
21248SOL    HW165185   5.202   2.126   9.768  0.2151 -0.8341 -1.4006
21248SOL    HW265186   5.329   2.138   9.849 -0.5963  1.1222 -0.3513
21249SOL     OW65187   7.713   2.601   7.009 -0.1208 -0.6549 -0.4309
21249SOL    HW165188   7.716   2.524   6.952 -1.4647 -0.4329 -0.8381
21249SOL    HW265189   7.650   2.659   6.967 -0.2503  0.0195  0.6685
21250SOL     OW65190   5.528   0.076   2.935 -0.5673  0.3636 -0.5039
21250SOL    HW165191   5.484  -0.002   2.902  0.4302 -1.0104  1.2147
21250SOL    HW265192   5.472   0.106   3.007 -1.9176  2.4146 -2.2755
21251SOL     OW65193   1.798   1.571   4.974 -0.3719 -0.0718  0.0531
21251SOL    HW165194   1.707   1.546   4.957 -0.2484 -1.0013  0.7023
21251SOL    HW265195   1.837   1.494   5.014  0.5161  0.5705  0.4538
21252SOL     OW65196   2.636   6.463   5.322 -0.2571  0.1192 -0.1209
21252SOL    HW165197   2.568   6.437   5.383  1.2583 -2.0734  0.7705
21252SOL    HW265198   2.651   6.385   5.268  1.1996  0.6985 -0.6022
21253SOL     OW65199   0.262   5.260  12.264  0.0485  0.1381 -0.3934
21253SOL    HW165200   0.283   5.177  12.306 -0.7025 -0.1295 -0.5391
21253SOL    HW265201   0.179   5.244  12.219  0.3884  0.6841 -1.2273
21254SOL     OW65202   0.225   6.842   1.509 -0.1101 -0.8887  0.1534
21254SOL    HW165203   0.208   6.834   1.415 -0.5018  0.9471  0.0261
21254SOL    HW265204   0.319   6.860   1.514 -0.2295 -0.2053  0.0399
21255SOL     OW65205   0.164   7.640   7.126 -0.0744 -0.1353  0.3275
21255SOL    HW165206   0.167   7.721   7.177  1.7350 -0.6946  1.2153
21255SOL    HW265207   0.189   7.666   7.037  1.2233  0.2218  0.7667
21256SOL     OW65208   7.159   2.254   5.654  0.3259 -0.1059  0.6633
21256SOL    HW165209   7.145   2.347   5.673 -2.6447 -0.4694  0.6900
21256SOL    HW265210   7.234   2.253   5.594 -1.5649  2.6539 -2.0809
21257SOL     OW65211   2.136   4.275   6.309  0.0849 -0.5814  0.1795
21257SOL    HW165212   2.065   4.218   6.281 -0.7043  1.2493 -1.8267
21257SOL    HW265213   2.215   4.232   6.277 -0.4669 -0.7007 -1.0873
21258SOL     OW65214   6.754   1.556   9.984  0.3250  0.3316  0.4130
21258SOL    HW165215   6.786   1.499  10.053 -0.9494  0.1106  0.8441
21258SOL    HW265216   6.687   1.609  10.025  0.3086  0.9615 -0.3949
21259SOL     OW65217   0.075   2.371   0.768  0.5450  0.3228 -0.2027
21259SOL    HW165218   0.170   2.387   0.776  0.3823  0.6763  1.3105
21259SOL    HW265219   0.062   2.284   0.805 -0.0652  1.4265  2.3625
21260SOL     OW65220   5.406   7.948   6.300  0.1240 -0.2657  0.2136
21260SOL    HW165221   5.397   7.859   6.265 -0.1037  0.7173 -2.4415
21260SOL    HW265222   5.321   7.967   6.340  0.0527 -1.0913  0.4708
21261SOL     OW65223   3.281   0.834   7.737 -0.5471 -0.5380  0.0751
21261SOL    HW165224   3.363   0.826   7.688  0.2756  0.2112  1.2807
21261SOL    HW265225   3.282   0.923   7.771 -1.8915 -0.5099  0.1038
21262SOL     OW65226   4.246   0.971  10.090  0.1193  0.0799 -0.4437
21262SOL    HW165227   4.241   0.875  10.095  1.2728 -0.0942 -2.0038
21262SOL    HW265228   4.195   1.001  10.165 -0.4139 -1.7517 -0.0166
21263SOL     OW65229   6.070   0.996   8.797 -0.2164 -0.3168  0.4598
21263SOL    HW165230   6.162   0.991   8.770 -0.7149  0.5001 -1.5633
21263SOL    HW265231   6.074   0.998   8.893  1.8684 -0.2797  0.4367
21264SOL     OW65232   5.517   2.800   5.564 -0.0509 -0.1036  0.1436
21264SOL    HW165233   5.509   2.853   5.643  0.4327  0.5099 -0.2100
21264SOL    HW265234   5.429   2.802   5.525  0.3411  1.8990 -0.7657
21265SOL     OW65235   0.916   4.036   4.467  0.1796 -0.2519  0.3342
21265SOL    HW165236   0.835   4.014   4.421  0.8083 -0.4452 -0.6947
21265SOL    HW265237   0.891   4.107   4.526 -0.6393 -0.0177 -0.2824
21266SOL     OW65238   5.692   4.210   4.969  0.7656  0.3424 -0.2112
21266SOL    HW165239   5.621   4.236   4.910 -1.0895  1.4926  2.3867
21266SOL    HW265240   5.740   4.291   4.986  2.2182 -0.2598 -1.1944
21267SOL     OW65241   6.597   1.335   4.839  0.5287  0.0956 -0.0025
21267SOL    HW165242   6.677   1.299   4.800  0.3188  0.2356 -0.5666
21267SOL    HW265243   6.602   1.309   4.931  0.8109 -0.6306 -0.2152
21268SOL     OW65244   1.585   4.890   0.067 -0.7551  0.0022 -0.2997
21268SOL    HW165245   1.655   4.894   0.132 -0.8989  2.8722 -0.1844
21268SOL    HW265246   1.505   4.903   0.117 -1.0372  0.3067 -0.8162
21269SOL     OW65247   1.793   3.298  11.678  0.0423 -0.3786  0.2447
21269SOL    HW165248   1.703   3.287  11.646 -0.7435  0.4318  2.0237
21269SOL    HW265249   1.796   3.388  11.710  0.9291 -0.9198  1.8219
21270SOL     OW65250   2.774   0.036   2.631 -0.2017 -0.0758 -0.0628
21270SOL    HW165251   2.869   0.038   2.633 -0.1905  0.5418 -0.6319
21270SOL    HW265252   2.752  -0.041   2.578 -0.0258 -0.3904  0.3228
21271SOL     OW65253   5.023   6.987   6.768  0.0144 -0.5484 -0.0887
21271SOL    HW165254   5.077   6.947   6.837 -0.1407 -1.1664 -0.3213
21271SOL    HW265255   5.045   7.080   6.772 -1.0932 -0.3058  1.8126
21272SOL     OW65256   7.053   1.973   5.459  0.4641 -0.6460 -0.3454
21272SOL    HW165257   7.141   1.993   5.492 -0.0001  1.1862 -0.0856
21272SOL    HW265258   6.997   1.979   5.536 -0.1665  0.3301 -0.8676
21273SOL     OW65259   3.384   7.385   6.866  0.4387 -0.1308  0.2836
21273SOL    HW165260   3.473   7.420   6.873  0.0604  0.8187  0.5096
21273SOL    HW265261   3.371   7.335   6.946  0.8822 -0.5538  0.0970
21274SOL     OW65262   7.571   4.352   3.363  0.0750 -0.2031  0.1079
21274SOL    HW165263   7.507   4.314   3.302 -1.6291 -0.2008  1.7864
21274SOL    HW265264   7.518   4.388   3.434  1.9192  0.8080  1.0568
21275SOL     OW65265   6.774   0.600  11.912 -0.4240  0.4510 -0.6411
21275SOL    HW165266   6.795   0.688  11.943  0.6762  0.2623 -0.8012
21275SOL    HW265267   6.679   0.597  11.911 -0.5611  0.5640  2.4007
21276SOL     OW65268   1.347   5.275   5.015 -0.7162 -0.2401 -0.3984
21276SOL    HW165269   1.389   5.250   4.933 -0.4800 -1.3567  0.0448
21276SOL    HW265270   1.266   5.319   4.988 -0.7140 -0.7269 -1.2315
21277SOL     OW65271   1.468   1.617   0.136  0.6620 -0.1782 -0.2844
21277SOL    HW165272   1.391   1.671   0.151 -0.4197 -1.3911 -1.1691
21277SOL    HW265273   1.530   1.675   0.092 -0.5536  0.2993 -1.4370
21278SOL     OW65274   2.144   4.791   8.737  0.1167 -0.5768  0.6146
21278SOL    HW165275   2.226   4.812   8.691 -0.3735  0.5734  0.2270
21278SOL    HW265276   2.113   4.711   8.696  1.0283 -1.0115  0.7420
21279SOL     OW65277   5.699   5.423   7.850  0.3723 -0.0843  0.4700
21279SOL    HW165278   5.750   5.342   7.853  1.8834  0.7788 -0.4402
21279SOL    HW265279   5.764   5.492   7.864 -0.6073  1.0669 -0.4758
21280SOL     OW65280   0.449   4.250   2.864  0.1842 -0.1072 -0.1454
21280SOL    HW165281   0.395   4.218   2.791  0.5196 -1.0322 -0.0020
21280SOL    HW265282   0.429   4.191   2.936  1.5529 -0.6194 -0.1553
21281SOL     OW65283   7.044   5.279   5.111 -0.2064  0.5930 -0.3761
21281SOL    HW165284   7.002   5.193   5.112  0.7097  0.1416  0.2953
21281SOL    HW265285   7.060   5.299   5.203 -0.0781  1.3271 -0.5497
21282SOL     OW65286   4.303   4.814   1.353 -0.3686  0.0300  0.3815
21282SOL    HW165287   4.209   4.800   1.348 -0.1956 -0.7016 -1.7042
21282SOL    HW265288   4.313   4.909   1.361 -1.2706  0.2785 -1.0714
21283SOL     OW65289   4.257   0.555   6.666  0.4492 -0.3411 -0.1590
21283SOL    HW165290   4.306   0.549   6.748 -1.0202 -2.0663  0.6649
21283SOL    HW265291   4.226   0.466   6.650 -1.3148  0.4279 -1.2868
21284SOL     OW65292   1.709   2.838   0.827 -0.1052 -0.2833 -0.3613
21284SOL    HW165293   1.619   2.819   0.854  0.1030 -0.5655  0.1443
21284SOL    HW265294   1.758   2.846   0.909  0.6777 -1.8303 -0.6302
21285SOL     OW65295   5.057   7.381   0.812 -0.5358  0.0627  0.3328
21285SOL    HW165296   4.998   7.443   0.769  0.6036  1.5233  0.7947
21285SOL    HW265297   5.123   7.361   0.745 -0.5856 -0.2122  0.3663
21286SOL     OW65298   4.827   4.296   9.197 -0.0921 -0.1853 -0.0959
21286SOL    HW165299   4.751   4.238   9.203 -1.1093  1.1381  0.3351
21286SOL    HW265300   4.888   4.250   9.140 -0.8572 -1.6728  0.2505
21287SOL     OW65301   5.867   6.075   4.460 -0.5556 -0.4749 -0.1026
21287SOL    HW165302   5.889   6.002   4.517  0.3586 -0.1273  0.0108
21287SOL    HW265303   5.873   6.039   4.372  0.6741 -0.3662 -0.0855
21288SOL     OW65304   2.162   7.078   9.367 -0.0338  0.8415 -0.6295
21288SOL    HW165305   2.240   7.099   9.419  0.6306  1.2588 -1.7740
21288SOL    HW265306   2.165   6.983   9.358  0.3899  0.8644 -0.7477
21289SOL     OW65307   1.950   3.878   7.550  0.4033  0.3708  0.3097
21289SOL    HW165308   1.960   3.823   7.472  0.9949 -0.5007  0.9828
21289SOL    HW265309   1.887   3.831   7.605 -0.0564  1.0108  0.3551
21290SOL     OW65310   1.877   4.053   8.118 -0.3558 -0.3788  0.4550
21290SOL    HW165311   1.866   4.148   8.119 -0.5632 -0.4020  1.0375
21290SOL    HW265312   1.896   4.031   8.209 -1.7892 -1.0558  0.6285
21291SOL     OW65313   7.414   4.835   4.699  0.4875 -0.1431 -0.1641
21291SOL    HW165314   7.386   4.886   4.775  0.9318 -1.1572  0.6918
21291SOL    HW265315   7.498   4.874   4.674  0.2151  0.3616 -0.3107
21292SOL     OW65316   3.645   1.465   5.605 -0.1682  0.3160 -0.3226
21292SOL    HW165317   3.707   1.434   5.539  0.2931 -0.2967  0.3814
21292SOL    HW265318   3.600   1.538   5.563 -0.1619 -0.3078 -1.4505
21293SOL     OW65319   6.997   7.291   0.319  0.4672 -0.1673  0.0300
21293SOL    HW165320   7.045   7.263   0.241 -1.1848  1.5354 -1.6921
21293SOL    HW265321   6.939   7.218   0.339 -0.3998  0.0455 -1.5098
21294SOL     OW65322   1.085   6.012   2.627  0.0526 -0.2350 -0.6408
21294SOL    HW165323   1.038   5.934   2.657 -0.1269  0.2143  0.3002
21294SOL    HW265324   1.156   5.977   2.573  2.6476 -1.4821  3.1209
21295SOL     OW65325   5.586   2.492   0.629 -0.3322  0.0873 -0.2656
21295SOL    HW165326   5.509   2.523   0.677  0.1285  0.2020  0.4156
21295SOL    HW265327   5.606   2.407   0.669 -0.5159 -0.2632 -0.9090
21296SOL     OW65328   7.482   6.759  11.085  0.1586  0.6785 -0.1242
21296SOL    HW165329   7.502   6.831  11.144  1.5511  0.0469  0.2119
21296SOL    HW265330   7.564   6.742  11.038 -0.8651  1.0827 -2.1836
21297SOL     OW65331   3.386   5.648   2.260  0.3702  0.4115  0.2375
21297SOL    HW165332   3.440   5.577   2.224 -1.2061 -0.5880 -0.2786
21297SOL    HW265333   3.433   5.677   2.337  2.5038  0.7643 -1.1073
21298SOL     OW65334   4.010   3.611  12.362 -0.0144  0.2380 -0.1373
21298SOL    HW165335   3.975   3.648  12.443 -0.8353 -0.5885 -0.1089
21298SOL    HW265336   4.069   3.541  12.391  2.4354  2.1438 -0.1391
21299SOL     OW65337   5.095   3.498   3.578 -0.2538  0.2488  0.1503
21299SOL    HW165338   5.058   3.474   3.662 -0.0808 -0.3313  0.0657
21299SOL    HW265339   5.180   3.453   3.575 -0.0640  0.6124 -0.1508
21300SOL     OW65340   7.959   3.612   1.081  0.5039 -0.3457  0.0148
21300SOL    HW165341   7.937   3.556   1.006 -0.4924 -2.0533  1.5191
21300SOL    HW265342   7.962   3.553   1.156 -1.0020  1.6713  1.7841
21301SOL     OW65343   0.230   3.327   6.342 -0.0134  0.2692  0.2482
21301SOL    HW165344   0.148   3.336   6.295  0.5958 -1.5080 -1.2671
21301SOL    HW265345   0.257   3.417   6.362 -1.9588  0.9011  0.2064
21302SOL     OW65346   4.826   6.897  10.128  0.4997 -0.0552 -1.4342
21302SOL    HW165347   4.914   6.927  10.107  0.3573  0.4577 -1.3031
21302SOL    HW265348   4.828   6.877  10.222  0.2304  0.8324 -1.2339
21303SOL     OW65349   6.913   0.064  10.638 -1.0335  0.5325 -0.8800
21303SOL    HW165350   6.818   0.078  10.638 -0.7291  3.2323 -0.9328
21303SOL    HW265351   6.940   0.095  10.551 -0.1025 -0.2812 -0.8854
21304SOL     OW65352   2.883   0.673  10.105  0.3032  0.1774 -0.2039
21304SOL    HW165353   2.941   0.651  10.032 -0.2195 -0.7146 -0.3611
21304SOL    HW265354   2.899   0.766  10.120  1.7233 -0.0266 -0.2832
21305SOL     OW65355   3.725   0.635   1.812  0.3515  0.0304 -0.1709
21305SOL    HW165356   3.786   0.580   1.860 -0.6311 -0.8149  0.1566
21305SOL    HW265357   3.714   0.590   1.728  0.3924  0.3293 -0.3372
21306SOL     OW65358   1.945   0.732   8.243  0.2127 -0.3673  0.4289
21306SOL    HW165359   1.934   0.698   8.154  1.3923  0.1150  0.0734
21306SOL    HW265360   1.962   0.825   8.231  2.4790 -0.6470  0.9747
21307SOL     OW65361   7.502   0.475   1.099  0.1082  0.2070  0.1320
21307SOL    HW165362   7.471   0.412   1.034 -0.7421 -0.7928  1.4528
21307SOL    HW265363   7.548   0.542   1.048  3.2849 -2.7097 -1.1659
21308SOL     OW65364   3.673   4.977   4.449 -0.1687  0.6559 -0.2554
21308SOL    HW165365   3.652   5.035   4.522  1.1267  0.5191  0.2685
21308SOL    HW265366   3.717   5.033   4.385  2.1921  0.1141  0.7747
21309SOL     OW65367   5.471   7.792  10.233 -0.2314  0.1943 -0.4966
21309SOL    HW165368   5.471   7.835  10.147  2.3183  0.9175 -0.2383
21309SOL    HW265369   5.563   7.794  10.260 -0.7794 -1.1588  1.7019
21310SOL     OW65370   4.526   2.171   8.387 -0.3002  0.4247  0.1984
21310SOL    HW165371   4.598   2.154   8.327 -1.1450  0.3423 -0.8325
21310SOL    HW265372   4.513   2.266   8.383 -0.8706  0.3338 -0.3955
21311SOL     OW65373   5.329   6.890   2.730  0.0104 -0.1950 -0.1393
21311SOL    HW165374   5.385   6.813   2.720 -0.9202 -1.0937  1.2358
21311SOL    HW265375   5.240   6.855   2.729 -0.4033  0.4969  2.7056
21312SOL     OW65376   5.170   5.177   2.615 -0.3927 -0.3473  0.0003
21312SOL    HW165377   5.180   5.096   2.664 -1.0067 -0.5384 -0.1863
21312SOL    HW265378   5.154   5.148   2.525  2.9993 -0.0190 -0.8332
21313SOL     OW65379   5.781   6.411   0.611 -0.6604  0.4996 -0.3082
21313SOL    HW165380   5.702   6.356   0.603  1.1062 -2.1463 -0.9990
21313SOL    HW265381   5.805   6.431   0.521  0.0723  0.3106 -0.1582
21314SOL     OW65382   4.088   1.998   2.259  0.1161 -0.0959 -0.3775
21314SOL    HW165383   4.172   1.955   2.279 -0.1647 -0.6356 -0.3278
21314SOL    HW265384   4.111   2.065   2.195  0.7125  0.3249  0.2627
21315SOL     OW65385   4.445   6.029   4.474 -0.7270 -0.1457 -0.2916
21315SOL    HW165386   4.488   6.016   4.390 -1.3522 -0.0588 -0.6364
21315SOL    HW265387   4.475   6.115   4.504  1.0685 -1.0331  0.5548
21316SOL     OW65388   3.410   2.335   0.329 -0.0694  0.8147 -0.0111
21316SOL    HW165389   3.503   2.356   0.336 -0.1722  1.7526 -1.0694
21316SOL    HW265390   3.392   2.340   0.235 -0.9867 -0.3026  0.0818
21317SOL     OW65391   4.755   5.565   9.796  0.1714  0.2332 -1.1579
21317SOL    HW165392   4.742   5.474   9.770  0.0246  0.5065 -2.0918
21317SOL    HW265393   4.697   5.615   9.738  0.5249  0.9477 -0.9107
21318SOL     OW65394   0.143   0.962   0.335  0.4901 -0.6785 -0.1072
21318SOL    HW165395   0.115   0.971   0.426  2.1356  0.0721  0.3560
21318SOL    HW265396   0.131   0.869   0.316 -0.9944 -0.6395  0.4621
21319SOL     OW65397   4.563   0.987  12.181 -0.1452 -0.2447 -0.3153
21319SOL    HW165398   4.494   0.923  12.160 -1.7941  1.6252 -0.8861
21319SOL    HW265399   4.569   0.984  12.276  0.3339 -1.7435 -0.3634
21320SOL     OW65400   3.979   6.995   6.836  0.2238 -0.1002  0.4695
21320SOL    HW165401   3.990   6.970   6.744 -0.2616 -1.4993  0.7672
21320SOL    HW265402   4.067   6.989   6.873  0.1838 -1.0552  0.4381
21321SOL     OW65403   1.165   2.335   7.162 -0.1223 -0.2464 -0.0306
21321SOL    HW165404   1.253   2.368   7.145 -0.0928 -0.3951 -0.1708
21321SOL    HW265405   1.107   2.410   7.145 -0.1107 -0.4382 -0.9976
21322SOL     OW65406   7.798   0.427   6.990 -0.3410 -0.1307  0.6456
21322SOL    HW165407   7.758   0.421   6.903  1.4405 -0.0676 -0.2441
21322SOL    HW265408   7.807   0.522   7.005  0.5971 -0.1352  0.2377
21323SOL     OW65409   4.909   0.487   1.479  0.2119  0.1526 -0.0263
21323SOL    HW165410   4.952   0.541   1.546 -0.7327 -0.1172  0.8249
21323SOL    HW265411   4.909   0.399   1.515 -1.1709  0.1728  0.0644
21324SOL     OW65412   2.985   3.720   1.049  0.1143 -0.3154  0.4466
21324SOL    HW165413   2.979   3.765   1.133 -0.6243 -1.1904  0.8768
21324SOL    HW265414   3.077   3.695   1.042  0.4309  0.8006  0.4319
21325SOL     OW65415   7.359   2.692   0.161 -0.1872 -0.1916  0.4379
21325SOL    HW165416   7.407   2.610   0.172 -0.4662 -0.3738  0.2937
21325SOL    HW265417   7.348   2.726   0.250  1.4922  0.5956  0.3978
21326SOL     OW65418   4.312   0.797   3.329 -0.0175  0.0044  0.0688
21326SOL    HW165419   4.241   0.807   3.393 -1.1691 -1.3182 -0.9262
21326SOL    HW265420   4.381   0.752   3.377 -0.9369 -1.1334  0.4009
21327SOL     OW65421   4.145   2.634  11.305  0.0850 -0.0658 -0.1822
21327SOL    HW165422   4.204   2.669  11.238 -0.7723 -0.3263 -1.1029
21327SOL    HW265423   4.135   2.541  11.282  2.6222 -1.1354  2.4258
21328SOL     OW65424   2.297   7.250   7.176  0.0820 -0.1106 -0.0323
21328SOL    HW165425   2.292   7.225   7.084  0.5964 -0.1184 -0.0640
21328SOL    HW265426   2.228   7.314   7.188  1.6385  1.8547 -1.0729
21329SOL     OW65427   0.000   4.041  12.131  0.5677  0.2792  0.0624
21329SOL    HW165428  -0.079   4.029  12.184  0.9723 -1.1073  0.4041
21329SOL    HW265429   0.054   3.964  12.151  1.1021  0.1372 -1.7326
21330SOL     OW65430   5.082   3.660   3.344  0.9101 -0.0507  0.1665
21330SOL    HW165431   4.992   3.693   3.341 -0.3130 -3.1378 -0.3780
21330SOL    HW265432   5.090   3.621   3.431  1.2810 -0.9518 -0.2670
21331SOL     OW65433   3.307   7.927   6.683 -0.6766 -0.5454  0.0135
21331SOL    HW165434   3.312   7.876   6.764 -1.8156  0.0384  0.4714
21331SOL    HW265435   3.357   7.876   6.620  1.2130 -0.4360  1.3555
21332SOL     OW65436   6.807   0.839   9.793  0.6174 -0.3810 -0.5443
21332SOL    HW165437   6.792   0.786   9.871 -1.0622  1.5205  0.5295
21332SOL    HW265438   6.869   0.906   9.822 -0.8296  0.9821 -0.4555
21333SOL     OW65439   2.582   7.039  10.064 -0.3723 -0.6124 -0.5395
21333SOL    HW165440   2.647   7.092  10.017 -0.9793  0.4304 -0.2432
21333SOL    HW265441   2.631   6.963  10.095  1.5263  1.5590  2.3048
21334SOL     OW65442   2.650   7.121  10.412 -0.1682  0.5709 -0.5810
21334SOL    HW165443   2.589   7.161  10.474 -0.6576 -0.1797 -0.5632
21334SOL    HW265444   2.610   7.037  10.390  2.2524 -1.3320  1.6868
21335SOL     OW65445   3.465   2.395  11.928  0.4233 -0.2664  0.3030
21335SOL    HW165446   3.511   2.340  11.991 -1.8137 -1.6606  0.8524
21335SOL    HW265447   3.375   2.360  11.927  0.0095  0.5941 -2.6177
21336SOL     OW65448   3.526   3.400   7.412  0.3765 -0.1472 -0.0538
21336SOL    HW165449   3.555   3.436   7.495 -1.5677  2.2126 -0.2972
21336SOL    HW265450   3.526   3.474   7.351 -0.7110 -1.2195 -1.4532
21337SOL     OW65451   3.527   4.458   4.251 -0.2177 -0.3695  0.1529
21337SOL    HW165452   3.543   4.463   4.345  2.2173 -0.0934 -0.2189
21337SOL    HW265453   3.452   4.515   4.236 -0.4658 -0.2032  1.8700
21338SOL     OW65454   7.524   6.543  11.623 -0.1758  0.2125  1.0338
21338SOL    HW165455   7.481   6.462  11.595 -0.4217  0.4710  0.6611
21338SOL    HW265456   7.574   6.518  11.701 -0.2993 -0.2840  0.9545
21339SOL     OW65457   7.767   7.805   3.648 -0.5169  0.0228 -0.1096
21339SOL    HW165458   7.728   7.759   3.723  1.6864 -0.5075  0.7985
21339SOL    HW265459   7.737   7.895   3.657 -0.5517 -0.0936  1.2746
21340SOL     OW65460   5.553   6.811   5.680 -0.1909 -0.2706 -0.6257
21340SOL    HW165461   5.508   6.894   5.694  0.0572 -0.1226 -0.7018
21340SOL    HW265462   5.521   6.781   5.594 -0.7060 -0.5310 -0.3503
21341SOL     OW65463   5.552   5.692   8.390 -0.0883 -0.1975  0.0056
21341SOL    HW165464   5.631   5.690   8.337 -0.5185 -1.6128 -0.6290
21341SOL    HW265465   5.489   5.639   8.341 -0.9402 -0.3891  1.2638
21342SOL     OW65466   2.102   4.606   3.867 -0.0366  0.5300  0.3696
21342SOL    HW165467   2.120   4.534   3.806 -1.2368 -0.8889  1.6201
21342SOL    HW265468   2.078   4.680   3.811  0.9232 -0.1062 -0.9319
21343SOL     OW65469   6.484   7.072   3.846 -0.4402 -0.1394 -0.0999
21343SOL    HW165470   6.404   7.077   3.897 -0.7534  0.3610 -0.6264
21343SOL    HW265471   6.538   7.145   3.878  1.5731 -2.7937  3.1283
21344SOL     OW65472   1.359   6.084   1.226  0.4180  0.0222  0.2427
21344SOL    HW165473   1.342   6.045   1.141 -0.0566  1.1026 -0.1821
21344SOL    HW265474   1.418   6.157   1.207  1.2737 -0.4544  1.0043
21345SOL     OW65475   7.448   6.279   5.171 -0.2759 -0.2356 -0.0320
21345SOL    HW165476   7.510   6.245   5.106  1.5038 -0.0644  1.4772
21345SOL    HW265477   7.493   6.267   5.255 -0.9027  2.8838  0.8572
21346SOL     OW65478   6.234   6.652  11.795  0.9350 -0.2855  0.1790
21346SOL    HW165479   6.244   6.745  11.774  0.3983 -0.2914 -0.1265
21346SOL    HW265480   6.140   6.640  11.809  0.8141 -1.0355 -1.0771
21347SOL     OW65481   2.977   0.543   4.851  0.4878  1.1939  0.0850
21347SOL    HW165482   2.937   0.483   4.788  2.0013  1.0300 -0.7759
21347SOL    HW265483   3.053   0.495   4.885 -0.3899  1.2123  2.2052
21348SOL     OW65484   7.338   5.011   8.048  0.3146  0.0074 -0.4135
21348SOL    HW165485   7.423   4.995   8.005  0.2935 -0.2708 -0.3553
21348SOL    HW265486   7.275   5.008   7.976 -0.1029 -3.4121 -0.0872
21349SOL     OW65487   3.296   4.703  10.788  0.2911  0.5845 -0.1502
21349SOL    HW165488   3.324   4.699  10.880 -0.6973  0.4395  0.1526
21349SOL    HW265489   3.324   4.790  10.759  0.2763  0.7800  0.4040
21350SOL     OW65490   4.405   0.456   8.954  0.8482 -0.1248  0.1087
21350SOL    HW165491   4.459   0.423   9.026 -0.0963 -2.5127 -0.1645
21350SOL    HW265492   4.385   0.378   8.902 -1.3523  0.9647 -0.8127
21351SOL     OW65493   4.691   7.482   8.501 -0.1848  0.5517 -0.9490
21351SOL    HW165494   4.746   7.528   8.437 -0.3582  3.3834  0.7939
21351SOL    HW265495   4.636   7.425   8.448  1.1233  1.1853 -3.1335
21352SOL     OW65496   1.574   0.372   4.208 -0.2079 -0.0611  0.4340
21352SOL    HW165497   1.581   0.456   4.252 -0.9277 -1.3015  3.1786
21352SOL    HW265498   1.650   0.322   4.239 -0.8867 -1.0854  0.5081
21353SOL     OW65499   4.716   6.250   9.266 -0.1980  0.1081 -0.4218
21353SOL    HW165500   4.670   6.220   9.187  1.1036 -0.8104 -0.8632
21353SOL    HW265501   4.733   6.169   9.315 -0.5713  0.6225  0.5770
21354SOL     OW65502   6.381   4.106  11.944 -0.3678 -0.0804  0.2639
21354SOL    HW165503   6.399   4.012  11.939 -2.6090 -0.5060 -1.1620
21354SOL    HW265504   6.364   4.122  12.037 -0.4213 -1.1680  0.4534
21355SOL     OW65505   7.380   2.208  12.252 -0.3164  0.5820  0.3605
21355SOL    HW165506   7.382   2.115  12.232  0.3043  0.4773  0.8840
21355SOL    HW265507   7.400   2.251  12.168 -1.1103  0.2695  0.0034
21356SOL     OW65508   1.768   2.967   6.557 -0.4318 -0.3697  0.3692
21356SOL    HW165509   1.767   2.879   6.594  0.8916  0.0296  1.4118
21356SOL    HW265510   1.816   3.020   6.621 -3.0274  1.6229  0.8711
21357SOL     OW65511   7.757   0.054   3.842  0.2244  0.0273  0.4059
21357SOL    HW165512   7.829   0.017   3.894  0.7975  0.9014  0.2668
21357SOL    HW265513   7.680   0.045   3.898  0.2988 -1.5025  0.3034
21358SOL     OW65514   1.861   0.395   6.217 -0.4454  0.1658  0.4852
21358SOL    HW165515   1.906   0.354   6.291  0.6146  0.3425 -0.0280
21358SOL    HW265516   1.884   0.488   6.224  0.1312  0.1017 -0.3565
21359SOL     OW65517   0.164   4.670   2.456 -0.1738  0.1039 -0.5444
21359SOL    HW165518   0.107   4.625   2.517 -0.3744  1.0588  0.0001
21359SOL    HW265519   0.124   4.655   2.370  0.8445 -2.3701 -0.6498
21360SOL     OW65520   2.262   1.157   5.593 -0.3310 -0.6528 -0.4635
21360SOL    HW165521   2.193   1.092   5.610 -0.4411  0.1608  2.7431
21360SOL    HW265522   2.343   1.106   5.597 -0.4793 -0.8258  1.0043
21361SOL     OW65523   6.257   0.821  11.543  0.4089  0.0317 -0.7555
21361SOL    HW165524   6.299   0.904  11.519  0.2095  0.1805 -0.5896
21361SOL    HW265525   6.188   0.809  11.479 -0.9585  1.0651  0.4607
21362SOL     OW65526   5.914   3.171   2.746 -0.3531  0.0095 -0.1118
21362SOL    HW165527   5.963   3.162   2.665 -0.3578 -0.7872 -0.0322
21362SOL    HW265528   5.824   3.190   2.718 -0.3261 -0.1251 -0.2915
21363SOL     OW65529   1.613   7.173   4.331 -0.3271 -0.3162 -0.2152
21363SOL    HW165530   1.633   7.266   4.319  1.3584 -0.5280  0.7118
21363SOL    HW265531   1.663   7.129   4.262 -0.7702 -0.5844 -0.3731
21364SOL     OW65532   0.183   2.493   7.695 -0.3446  0.5697  0.2246
21364SOL    HW165533   0.170   2.584   7.668 -0.1327  0.2791 -0.8956
21364SOL    HW265534   0.260   2.495   7.751 -1.0692  1.2553  1.2283
21365SOL     OW65535   3.599   4.238   6.429 -0.2625 -0.0936  0.1354
21365SOL    HW165536   3.576   4.319   6.384 -1.0153 -0.3627  0.0081
21365SOL    HW265537   3.640   4.183   6.362 -0.9150 -0.2961 -0.1125
21366SOL     OW65538   6.827   7.798   0.111 -0.1851 -0.3411  0.3077
21366SOL    HW165539   6.776   7.785   0.190 -0.1615  0.6316  0.5010
21366SOL    HW265540   6.785   7.872   0.067  0.4302 -0.2016 -0.0603
21367SOL     OW65541   4.165   7.249   1.153 -0.1966  0.2162 -0.1150
21367SOL    HW165542   4.186   7.161   1.183 -1.0317  1.2068  3.9497
21367SOL    HW265543   4.080   7.240   1.111  0.4882 -1.1073 -1.3235
21368SOL     OW65544   1.409   1.111  12.193 -0.0519  0.2678 -0.1680
21368SOL    HW165545   1.346   1.073  12.132 -0.3264 -1.1822  0.9506
21368SOL    HW265546   1.494   1.096  12.151 -0.0806 -2.2789  0.4686
21369SOL     OW65547   3.842   0.149   6.071  0.6034 -0.0112 -0.2400
21369SOL    HW165548   3.755   0.107   6.065  1.2484 -1.6078  0.7393
21369SOL    HW265549   3.826   0.230   6.120 -0.1971 -0.8832  1.0244
21370SOL     OW65550   7.202   4.695  11.377  0.4864 -0.3922  0.0419
21370SOL    HW165551   7.254   4.641  11.318  2.6242  0.8625  0.6602
21370SOL    HW265552   7.199   4.645  11.459  1.7744  0.0087  0.3643
21371SOL     OW65553   5.068   5.996   1.303  0.3700  0.4360 -0.7796
21371SOL    HW165554   5.128   6.067   1.323 -0.7457  0.9284  1.0044
21371SOL    HW265555   4.994   6.038   1.260  0.4208  0.1063 -1.2023
21372SOL     OW65556   2.802   3.540   0.571  0.1897 -0.3908 -0.1759
21372SOL    HW165557   2.761   3.454   0.579 -1.4289  0.2054 -1.4087
21372SOL    HW265558   2.732   3.597   0.540  1.7043  0.9431 -1.3445
21373SOL     OW65559   4.214   6.343   7.566 -0.8311  0.2082 -0.3709
21373SOL    HW165560   4.151   6.305   7.505  0.5919 -0.3096 -1.5921
21373SOL    HW265561   4.178   6.324   7.653 -2.0535 -0.5547 -1.0111
21374SOL     OW65562   3.535   1.005   9.908  0.7392 -0.5364  0.3886
21374SOL    HW165563   3.517   0.919   9.944  0.1862 -1.3245 -1.6419
21374SOL    HW265564   3.450   1.049   9.906  0.7318 -0.5711 -0.1217
21375SOL     OW65565   6.917   4.200  12.203 -0.5151 -0.1543 -0.4741
21375SOL    HW165566   6.949   4.275  12.253  1.4778 -0.2818 -1.4226
21375SOL    HW265567   6.875   4.239  12.126  0.1119  0.0350 -0.7365
21376SOL     OW65568   0.182   1.448   7.238  0.0081 -0.0872 -0.0069
21376SOL    HW165569   0.108   1.444   7.299 -0.4446  0.3831 -0.5177
21376SOL    HW265570   0.257   1.467   7.294 -0.7243  2.5700  0.2017
21377SOL     OW65571   1.705   0.161   3.485  0.5132 -0.1718  0.5573
21377SOL    HW165572   1.632   0.167   3.546  0.9247  0.1812  1.0229
21377SOL    HW265573   1.703   0.070   3.454 -0.3299 -0.0700  0.2973
21378SOL     OW65574   7.264   5.680   8.911 -0.0657 -0.0737  0.9070
21378SOL    HW165575   7.312   5.740   8.968 -1.0570  1.6814 -0.0199
21378SOL    HW265576   7.201   5.637   8.969  0.5047 -0.0625  1.5477
21379SOL     OW65577   4.062   5.251   9.793 -0.3714  0.1913  0.0949
21379SOL    HW165578   3.991   5.289   9.742  1.0182  2.8382 -0.0456
21379SOL    HW265579   4.120   5.211   9.729 -0.4335  0.3412 -0.0549
21380SOL     OW65580   6.977   6.042  10.218  0.2409  0.3608  0.5194
21380SOL    HW165581   6.955   6.104  10.287 -3.4008  0.1637 -0.2545
21380SOL    HW265582   6.910   6.057  10.151  0.1233 -3.3289 -0.3887
21381SOL     OW65583   7.200   5.153   0.059 -0.2618 -0.5019  0.1014
21381SOL    HW165584   7.291   5.125   0.064  0.2187  0.7739 -0.7944
21381SOL    HW265585   7.188   5.209   0.136 -0.1528 -0.3362  0.0001
21382SOL     OW65586   7.770   3.997   5.459  0.5700 -0.0810  0.2281
21382SOL    HW165587   7.789   3.965   5.370 -0.5882 -0.1348 -0.0126
21382SOL    HW265588   7.818   4.080   5.465 -1.5814  1.3868 -1.5014
21383SOL     OW65589   2.970   4.855  11.187  0.4658 -0.3050 -0.2546
21383SOL    HW165590   3.016   4.888  11.264  0.6066 -1.4440  0.1815
21383SOL    HW265591   2.884   4.897  11.190  0.9286  0.6468 -0.2010
21384SOL     OW65592   4.135   7.636   9.235 -0.0666  0.4057  0.1910
21384SOL    HW165593   4.105   7.600   9.318 -0.2509 -0.1829 -0.1214
21384SOL    HW265594   4.194   7.707   9.259 -0.2291  0.3324  0.8217
21385SOL     OW65595   6.652   5.811  11.107 -0.3038 -0.4328 -0.4337
21385SOL    HW165596   6.634   5.905  11.105  1.6957 -0.0054 -0.6158
21385SOL    HW265597   6.721   5.799  11.041  0.8111 -1.7012  0.8981
21386SOL     OW65598   7.848   7.179   0.506 -0.0451  0.4838  0.5576
21386SOL    HW165599   7.812   7.241   0.443 -2.1799 -1.3909 -0.2344
21386SOL    HW265600   7.885   7.109   0.453  1.8865  0.7967  1.4222
21387SOL     OW65601   0.843   0.147  10.008  0.6516  0.2794 -0.0705
21387SOL    HW165602   0.926   0.172  10.048  0.2062  1.5553  0.1049
21387SOL    HW265603   0.792   0.110  10.080  0.8744 -0.0376 -0.0721
21388SOL     OW65604   1.854   2.594  12.148  0.3193 -0.2027 -0.0331
21388SOL    HW165605   1.895   2.611  12.233 -2.1753  0.9901  1.0089
21388SOL    HW265606   1.791   2.665  12.136 -0.7402 -1.3802 -2.0020
21389SOL     OW65607   5.446   3.100   7.320 -0.0610  0.8196  0.5438
21389SOL    HW165608   5.464   3.145   7.403 -1.7671  1.7595  0.4544
21389SOL    HW265609   5.457   3.167   7.253  0.3547  0.3094  0.0887
21390SOL     OW65610   2.402   3.059  10.557 -0.5148  0.3918  0.2329
21390SOL    HW165611   2.373   3.149  10.549 -0.5791  0.4455  0.9516
21390SOL    HW265612   2.336   3.008  10.510 -1.1243  0.6229  0.8062
21391SOL     OW65613   4.526   5.328   1.999 -0.2780  0.9931 -0.2716
21391SOL    HW165614   4.615   5.307   1.971 -0.3130 -1.6678  1.2779
21391SOL    HW265615   4.537   5.398   2.064  1.2044 -1.5445  2.4832
21392SOL     OW65616   7.710   1.444   7.518  0.1926 -0.4535 -0.2174
21392SOL    HW165617   7.712   1.516   7.581 -1.4544 -1.1578  0.6980
21392SOL    HW265618   7.783   1.463   7.459  2.4996 -0.2652  2.4504
21393SOL     OW65619   0.568   1.565   8.976  0.0414 -0.4591  0.4724
21393SOL    HW165620   0.654   1.522   8.982  0.1977 -0.4474 -1.3294
21393SOL    HW265621   0.579   1.647   9.024  1.2864 -0.0845 -0.4175
21394SOL     OW65622   1.071   7.744   3.260  0.2579  0.1256  0.0385
21394SOL    HW165623   1.049   7.820   3.205  0.8899 -0.1652 -0.6416
21394SOL    HW265624   1.095   7.781   3.344  1.3979  0.7781 -0.5416
21395SOL     OW65625   1.698   1.438   5.246 -0.1694  0.9584 -0.3800
21395SOL    HW165626   1.696   1.363   5.187  1.0603  0.3532  0.3109
21395SOL    HW265627   1.620   1.489   5.224  0.0312  0.5154 -2.2129
21396SOL     OW65628   3.511   0.161   5.286 -0.1491  0.2066  0.3189
21396SOL    HW165629   3.593   0.113   5.272  0.0798  0.6220  0.2053
21396SOL    HW265630   3.484   0.137   5.375 -1.1247 -1.7267 -0.4429
21397SOL     OW65631   4.882   3.950   2.581 -0.3320 -0.3307  0.0890
21397SOL    HW165632   4.802   4.001   2.565 -0.4844 -0.7934 -0.6762
21397SOL    HW265633   4.949   4.016   2.600 -0.5968  0.1550 -0.6035
21398SOL     OW65634   4.873   4.384   5.704  0.4013 -0.4157 -0.4805
21398SOL    HW165635   4.812   4.405   5.633 -0.4955  0.1143  0.4158
21398SOL    HW265636   4.954   4.429   5.681  0.7696 -1.7935 -2.1110
21399SOL     OW65637   4.247   4.662   9.147  0.1244  0.3191  0.0557
21399SOL    HW165638   4.274   4.634   9.059  2.0205 -0.4508  0.8519
21399SOL    HW265639   4.245   4.758   9.141 -0.6069  0.2667 -1.0264
21400SOL     OW65640   5.497   3.637  10.643  0.5145  0.1203  0.4153
21400SOL    HW165641   5.433   3.672  10.581 -0.4958 -0.4444  1.1051
21400SOL    HW265642   5.516   3.710  10.702 -0.0371  0.0999  0.6244
21401SOL     OW65643   4.280   4.113   2.371  0.1608 -0.4199 -0.7073
21401SOL    HW165644   4.282   4.060   2.451  1.5929  0.2583 -0.2554
21401SOL    HW265645   4.209   4.075   2.319  2.1621 -3.9553 -1.2087
21402SOL     OW65646   3.361   2.326  10.915 -0.2993  0.2211 -0.5978
21402SOL    HW165647   3.268   2.340  10.897 -0.5119 -0.9228 -0.4809
21402SOL    HW265648   3.373   2.359  11.004 -0.9734 -1.0763  0.0019
21403SOL     OW65649   4.118   0.532  10.738 -0.0470 -0.2049  0.2493
21403SOL    HW165650   4.117   0.561  10.829 -1.2924 -1.0620  0.5288
21403SOL    HW265651   4.201   0.485  10.730 -0.6736 -1.5997  1.4569
21404SOL     OW65652   0.292   3.254  12.210 -0.0555  0.1529 -0.3293
21404SOL    HW165653   0.292   3.310  12.288 -1.1312  1.0240 -0.9254
21404SOL    HW265654   0.383   3.228  12.199  0.1070 -0.0603  1.2611
21405SOL     OW65655   7.919   6.671   8.636  0.1440  0.0483  0.1235
21405SOL    HW165656   7.958   6.655   8.722 -0.6789 -0.9265  0.3363
21405SOL    HW265657   7.825   6.673   8.652 -0.0741 -1.0585 -0.8621
21406SOL     OW65658   4.035   6.458   1.472  0.0591  0.3534  0.2908
21406SOL    HW165659   4.091   6.391   1.433 -0.0577 -0.9503  2.2524
21406SOL    HW265660   3.997   6.504   1.397  0.5165 -1.4437 -1.1104
21407SOL     OW65661   0.319   5.425   8.257 -0.0271 -0.1145 -0.4597
21407SOL    HW165662   0.288   5.387   8.175  0.8251  0.3628 -1.0200
21407SOL    HW265663   0.275   5.510   8.262 -0.9950 -0.6351  0.1869
21408SOL     OW65664   2.131   4.617   3.013 -0.5399  0.2326  0.0482
21408SOL    HW165665   2.062   4.679   3.036 -2.3897 -1.8470  0.5205
21408SOL    HW265666   2.113   4.594   2.922 -0.6571 -0.5221  0.2563
21409SOL     OW65667   2.598   0.148   4.349  0.0675 -0.0292 -0.0041
21409SOL    HW165668   2.600   0.187   4.262  1.1221  0.4979  0.2381
21409SOL    HW265669   2.552   0.212   4.403 -2.5546 -1.3073 -0.5740
21410SOL     OW65670   7.004   6.530   0.366 -0.3595 -0.3238 -0.0380
21410SOL    HW165671   7.009   6.561   0.276  1.1848  1.7839  0.7106
21410SOL    HW265672   7.061   6.453   0.368 -1.4137 -1.1698 -1.1045
21411SOL     OW65673   1.590   0.142  12.247  0.3655  0.9313 -0.0766
21411SOL    HW165674   1.677   0.179  12.232 -0.0884  2.7256  1.3907
21411SOL    HW265675   1.593   0.056  12.205  2.6460  1.1884 -0.5555
21412SOL     OW65676   1.362   1.546   9.646 -0.3014  0.1374  0.1965
21412SOL    HW165677   1.393   1.457   9.661  3.2170  0.9920 -1.0280
21412SOL    HW265678   1.350   1.582   9.734 -1.3099 -1.3473  0.7011
21413SOL     OW65679   4.929   1.777   7.254 -0.0826 -0.8474  0.0485
21413SOL    HW165680   4.870   1.752   7.325 -1.1114  1.9266  0.3210
21413SOL    HW265681   5.011   1.801   7.297  0.4599 -2.3741 -0.0866
21414SOL     OW65682   0.180   2.397   5.750  0.6376  0.1211  0.4515
21414SOL    HW165683   0.184   2.316   5.698  1.1118 -1.2127  2.4332
21414SOL    HW265684   0.167   2.466   5.685  0.4167 -1.5023 -1.3567
21415SOL     OW65685   0.583   7.904   3.680 -0.2075 -0.1105 -0.0592
21415SOL    HW165686   0.657   7.958   3.709 -0.4344 -0.2510  0.7943
21415SOL    HW265687   0.615   7.861   3.601  0.4202  0.2823 -0.0296
21416SOL     OW65688   1.796   5.449   5.821  0.0986 -0.0279 -0.1171
21416SOL    HW165689   1.770   5.541   5.812 -1.4183 -0.0204  2.9839
21416SOL    HW265690   1.713   5.403   5.839  0.8595 -1.9960 -1.3365
21417SOL     OW65691   1.050   3.871   8.722 -0.2973  0.6280 -0.1755
21417SOL    HW165692   0.955   3.878   8.722 -0.3995 -0.2481 -1.8855
21417SOL    HW265693   1.068   3.778   8.711  0.7109  0.9930 -2.0414
21418SOL     OW65694   6.447   4.035   7.976 -0.9070 -0.2647 -0.0557
21418SOL    HW165695   6.416   4.122   7.950 -0.6224 -0.3536 -0.7052
21418SOL    HW265696   6.448   3.985   7.895 -2.5203 -1.3405  0.5241
21419SOL     OW65697   7.013   4.614   1.227  0.1961  0.2131 -0.0879
21419SOL    HW165698   7.085   4.576   1.277 -0.0256  0.7823  0.6912
21419SOL    HW265699   7.042   4.704   1.209 -0.2591  0.3978  0.1059
21420SOL     OW65700   2.473   1.827   6.242  0.2002  0.9567  0.3838
21420SOL    HW165701   2.408   1.859   6.304 -0.1447 -0.5326  0.8285
21420SOL    HW265702   2.431   1.838   6.156 -0.7492 -0.1458  0.6745
21421SOL     OW65703   5.072   4.517   8.366 -0.0117  0.1729  0.0896
21421SOL    HW165704   5.120   4.434   8.354  1.2267  0.7219  1.0570
21421SOL    HW265705   5.118   4.579   8.310  0.5543  0.7499  1.1608
21422SOL     OW65706   2.825   7.825   0.064 -0.0852 -0.3148  0.1221
21422SOL    HW165707   2.733   7.807   0.081 -0.2035  0.4651  0.3492
21422SOL    HW265708   2.861   7.742   0.033 -0.9145 -0.5622 -0.1869
21423SOL     OW65709   5.915   1.846   5.024 -0.2416  0.3152 -0.0376
21423SOL    HW165710   5.915   1.858   5.119  0.2856 -0.8827  0.1356
21423SOL    HW265711   5.995   1.796   5.006 -1.2124 -1.0131 -0.8914
21424SOL     OW65712   4.295   1.783   2.205 -0.7463 -0.2065  0.1622
21424SOL    HW165713   4.365   1.829   2.158  0.6637 -1.5091  0.8863
21424SOL    HW265714   4.309   1.806   2.297 -0.9299 -0.8904  0.3677
21425SOL     OW65715   6.779   4.417   0.919 -0.5294 -0.0912 -0.0262
21425SOL    HW165716   6.718   4.362   0.869  0.8417 -0.8657 -0.9128
21425SOL    HW265717   6.736   4.429   1.004 -0.8817 -2.6437  0.2597
21426SOL     OW65718   0.451   4.939   0.412 -0.0288  0.1906  0.7212
21426SOL    HW165719   0.445   4.990   0.493  1.9826  0.4843  0.7540
21426SOL    HW265720   0.502   4.861   0.437 -2.9364 -1.9197  0.6537
21427SOL     OW65721   1.024   0.628   2.919  0.3382 -0.2662 -0.6295
21427SOL    HW165722   0.984   0.710   2.888  1.5558  1.6676  2.4201
21427SOL    HW265723   1.117   0.637   2.895  0.6590 -0.2779  0.5783
21428SOL     OW65724   1.658   5.631   1.420  0.7146  0.1350 -0.5617
21428SOL    HW165725   1.631   5.589   1.338  0.4730 -1.7051  0.4064
21428SOL    HW265726   1.655   5.725   1.401 -0.1094 -0.2195 -2.4101
21429SOL     OW65727   7.386   6.443   5.702  0.4454 -0.3669  0.4715
21429SOL    HW165728   7.451   6.378   5.677  0.6403  0.4896 -1.4052
21429SOL    HW265729   7.350   6.410   5.784  0.7241 -2.7044 -0.2643
21430SOL     OW65730   1.518   7.204   9.483 -0.2599 -0.6259  0.2147
21430SOL    HW165731   1.474   7.124   9.455  0.1807 -0.9934  0.5765
21430SOL    HW265732   1.459   7.274   9.455  0.1570 -0.9640 -1.6809
21431SOL     OW65733   2.767   3.032  12.204  1.0549 -0.1696  0.6765
21431SOL    HW165734   2.716   3.036  12.285 -1.4216  0.1696 -0.8090
21431SOL    HW265735   2.762   2.939  12.179 -0.9511  0.2402 -0.6695
21432SOL     OW65736   1.026   5.136   0.153 -0.5378 -0.0703  0.2814
21432SOL    HW165737   1.032   5.055   0.203 -0.0040  0.5140  1.1931
21432SOL    HW265738   1.117   5.162   0.138 -0.7020  0.2668 -0.1590
21433SOL     OW65739   0.361   7.859   3.004  0.3512 -0.0713  0.4078
21433SOL    HW165740   0.314   7.782   2.970  1.3276  0.0379 -1.3163
21433SOL    HW265741   0.321   7.933   2.959 -0.3751  0.4424  1.8332
21434SOL     OW65742   6.157   2.535  11.747 -0.8945 -0.6755 -0.0154
21434SOL    HW165743   6.067   2.558  11.724 -1.0228 -0.1505  0.9278
21434SOL    HW265744   6.166   2.443  11.723 -1.8333 -0.8613  0.3016
21435SOL     OW65745   3.065   4.706  10.165 -0.0937  0.0823 -0.4444
21435SOL    HW165746   3.056   4.706  10.260  0.8369 -3.3335 -0.2371
21435SOL    HW265747   3.160   4.711  10.151 -0.0987 -1.2326 -1.0713
21436SOL     OW65748   2.569   7.500   4.133  0.4244 -0.1460  0.1692
21436SOL    HW165749   2.548   7.428   4.193 -0.4451 -0.2975 -0.3043
21436SOL    HW265750   2.629   7.460   4.069  0.1329 -0.3934  0.0457
21437SOL     OW65751   0.456   0.040  10.644 -0.1177 -0.3953 -0.3438
21437SOL    HW165752   0.452   0.043  10.739 -0.1479  1.3946 -0.3827
21437SOL    HW265753   0.381   0.092  10.614  0.8348  0.4648 -1.3192
21438SOL     OW65754   5.113   0.906  10.698  0.5040  0.4174 -0.0074
21438SOL    HW165755   5.045   0.968  10.722 -0.4432 -0.5305 -0.1462
21438SOL    HW265756   5.179   0.915  10.766 -0.9765 -0.4654  1.6240
21439SOL     OW65757   6.496   6.866   8.416 -0.1075 -0.5950 -0.1552
21439SOL    HW165758   6.541   6.919   8.350  0.4546 -0.2248  0.5145
21439SOL    HW265759   6.425   6.823   8.368 -0.8990  1.1547 -0.6272
21440SOL     OW65760   7.091   0.571   4.549 -0.2745  0.1902 -0.5083
21440SOL    HW165761   7.161   0.557   4.485  1.7654 -0.0028  1.6314
21440SOL    HW265762   7.099   0.663   4.574 -0.6042  0.0986 -0.0414
21441SOL     OW65763   5.918   3.796   3.113 -0.4732  0.0437  0.1968
21441SOL    HW165764   5.978   3.870   3.122  2.4219 -2.2234  1.3372
21441SOL    HW265765   5.948   3.751   3.034 -0.8359 -0.9829  0.6331
21442SOL     OW65766   5.800   0.564   1.864 -0.1567  0.4986 -1.0219
21442SOL    HW165767   5.806   0.476   1.826 -0.3155  1.0775 -2.4799
21442SOL    HW265768   5.706   0.584   1.864 -0.1666  0.4682 -0.2067
21443SOL     OW65769   5.393   5.184   7.473  0.0063 -0.5198  0.1686
21443SOL    HW165770   5.418   5.093   7.457  1.0950 -0.3450  0.7863
21443SOL    HW265771   5.451   5.213   7.544 -1.8479 -0.0253  1.5603
21444SOL     OW65772   5.056   5.591   0.127  0.6785 -0.4682 -0.7239
21444SOL    HW165773   5.064   5.507   0.083  1.4010 -1.4297  1.1467
21444SOL    HW265774   5.082   5.574   0.217 -0.0627  1.5681 -0.0636
21445SOL     OW65775   5.710   2.237   0.662  0.4282  0.2938 -0.7328
21445SOL    HW165776   5.766   2.224   0.738  0.8120  1.8817 -0.7027
21445SOL    HW265777   5.721   2.158   0.610  1.8889  0.1255 -0.2046
21446SOL     OW65778   4.738   2.907   0.752 -0.1055 -0.5336 -0.0062
21446SOL    HW165779   4.808   2.871   0.806 -1.2276  0.2670  2.1108
21446SOL    HW265780   4.774   2.986   0.713  0.2909 -0.3344  0.7597
21447SOL     OW65781   3.600   1.223   4.892 -0.4067 -0.1613  0.9982
21447SOL    HW165782   3.546   1.290   4.850  0.7341  1.1961  1.6230
21447SOL    HW265783   3.566   1.140   4.858 -0.4241  0.8054 -1.5397
21448SOL     OW65784   7.458   1.660  10.974 -0.3702  0.2748 -0.3495
21448SOL    HW165785   7.399   1.610  11.031 -0.0292 -0.9444 -1.0408
21448SOL    HW265786   7.453   1.616  10.889  0.4531  1.0233 -0.8024
21449SOL     OW65787   0.360   1.499   6.078 -0.3857 -0.0741  0.0020
21449SOL    HW165788   0.442   1.538   6.046 -0.4028  1.2846  1.4783
21449SOL    HW265789   0.324   1.565   6.137 -2.2851 -0.8873 -0.1784
21450SOL     OW65790   5.060   3.599   2.077 -0.2062  0.2706  0.0221
21450SOL    HW165791   4.998   3.604   2.004 -0.8448  1.5684  0.6177
21450SOL    HW265792   5.097   3.687   2.083 -0.3678  0.2594  1.4215
21451SOL     OW65793   5.213   0.606   9.355  0.2225  0.2808 -0.6986
21451SOL    HW165794   5.224   0.685   9.302 -1.6343  1.8323  1.0541
21451SOL    HW265795   5.168   0.636   9.434 -1.4724 -2.6700 -0.3664
21452SOL     OW65796   7.864   1.474   0.190  0.2352  0.6583  0.7409
21452SOL    HW165797   7.797   1.498   0.125  1.0683  2.3491  0.4414
21452SOL    HW265798   7.821   1.411   0.247 -0.9093  0.0286 -0.7402
21453SOL     OW65799   6.582   4.643   4.779  0.2133  0.5523 -0.6673
21453SOL    HW165800   6.548   4.642   4.690 -1.7796  0.3828  0.0455
21453SOL    HW265801   6.507   4.620   4.834  1.6882 -0.6671  0.9707
21454SOL     OW65802   6.992   0.301   7.000 -0.4780 -0.3646  0.8903
21454SOL    HW165803   6.924   0.283   7.065 -1.4762 -1.1081 -0.3049
21454SOL    HW265804   6.987   0.395   6.986 -1.0025 -0.3558  1.1052
21455SOL     OW65805   7.673   6.377   5.951 -0.0391 -0.6752  0.3338
21455SOL    HW165806   7.752   6.337   5.915  0.6895 -0.1649  1.3057
21455SOL    HW265807   7.672   6.466   5.914 -0.2365 -0.7254  0.2170
21456SOL     OW65808   6.922   6.595   3.634  0.1994  0.3973  0.2176
21456SOL    HW165809   6.918   6.507   3.670  2.4374  0.3225  0.3960
21456SOL    HW265810   6.893   6.652   3.706 -1.4514 -0.1583  0.0335
21457SOL     OW65811   5.495   3.345   1.806 -0.4537  0.0079  0.0193
21457SOL    HW165812   5.426   3.406   1.778 -1.1127 -0.4348  0.6231
21457SOL    HW265813   5.573   3.399   1.813 -0.9194  0.6921  0.0854
21458SOL     OW65814   6.333   0.460  12.273 -0.3279  0.2763  0.1724
21458SOL    HW165815   6.397   0.454  12.343  1.3820  0.1171 -1.3247
21458SOL    HW265816   6.365   0.530  12.216 -1.9740  0.7979 -0.1764
21459SOL     OW65817   6.986   5.621   4.234 -0.6123  0.1338 -0.4626
21459SOL    HW165818   7.013   5.601   4.324  0.0409  2.3157 -0.1063
21459SOL    HW265819   6.945   5.707   4.241  0.3760  0.8026 -2.4053
21460SOL     OW65820   7.511   0.843   9.495 -0.5844 -0.0883 -0.0363
21460SOL    HW165821   7.468   0.838   9.581 -0.3702 -0.8068  0.0336
21460SOL    HW265822   7.558   0.926   9.497 -0.0913 -0.3715  0.7765
21461SOL     OW65823   5.408   0.366   2.703 -0.3702 -0.4522 -1.2928
21461SOL    HW165824   5.494   0.352   2.664 -0.0734 -0.4564 -0.6519
21461SOL    HW265825   5.419   0.444   2.757 -0.3328 -1.3194  0.0030
21462SOL     OW65826   0.711   4.157   1.207 -0.0513  0.0113 -0.2623
21462SOL    HW165827   0.742   4.085   1.151  2.6871 -0.0016  1.1222
21462SOL    HW265828   0.685   4.114   1.288 -1.0186  0.3365 -0.3932
21463SOL     OW65829   0.553   3.325   8.907  0.2397  0.0059  0.1747
21463SOL    HW165830   0.490   3.365   8.966 -0.4975 -1.8280  0.6923
21463SOL    HW265831   0.503   3.303   8.828  0.2931 -1.0738  0.4193
21464SOL     OW65832   2.764   2.713  12.194 -0.1235 -0.0458  0.1878
21464SOL    HW165833   2.722   2.676  12.116 -1.6342  2.6025 -0.3606
21464SOL    HW265834   2.858   2.699  12.179 -0.2000  1.7819 -2.9984
21465SOL     OW65835   0.797   2.909   2.152  0.5569  0.3048  0.0962
21465SOL    HW165836   0.750   2.872   2.077  2.0269 -1.6149  0.0640
21465SOL    HW265837   0.752   2.872   2.228  0.2934  0.6951  0.1340
21466SOL     OW65838   3.608   5.942   1.857  0.4152  0.4809 -0.4485
21466SOL    HW165839   3.528   5.920   1.810 -0.2061 -0.4127  0.9745
21466SOL    HW265840   3.582   6.011   1.918  0.5626 -0.2340  0.4450
21467SOL     OW65841   1.190   1.632   8.420 -0.3633 -0.2053 -0.6243
21467SOL    HW165842   1.197   1.590   8.334 -0.5566 -0.2384 -0.6239
21467SOL    HW265843   1.263   1.694   8.422 -0.6810  0.1855 -1.0268
21468SOL     OW65844   1.315   6.762   4.103  0.2711  1.0851 -0.1234
21468SOL    HW165845   1.410   6.749   4.111  0.1616 -0.1442 -0.5457
21468SOL    HW265846   1.305   6.824   4.030  0.7295  0.6498 -0.5614
21469SOL     OW65847   0.790   3.964   1.006  0.1603  0.1816 -0.0926
21469SOL    HW165848   0.788   3.873   1.034  2.7353 -0.6347 -2.1395
21469SOL    HW265849   0.756   3.962   0.916  0.9260  1.0678 -0.4289
21470SOL     OW65850   3.049   1.247   2.789  0.2104  0.0100  0.1414
21470SOL    HW165851   3.048   1.276   2.881  2.1156 -1.1674  0.5905
21470SOL    HW265852   2.971   1.193   2.781  0.0722  0.0374  1.1056
21471SOL     OW65853   3.456   5.190   3.748 -0.2214  0.3095  0.2987
21471SOL    HW165854   3.535   5.196   3.801 -0.0149  1.1958 -0.0979
21471SOL    HW265855   3.477   5.128   3.679  0.1399  0.5726  0.1730
21472SOL     OW65856   2.191   1.186   8.914  0.4247 -0.2147 -0.2318
21472SOL    HW165857   2.167   1.266   8.960  0.0785 -0.6457  0.3468
21472SOL    HW265858   2.266   1.211   8.860  1.0820  0.2278  0.8422
21473SOL     OW65859   3.252   7.617   5.728 -0.2308  0.3116 -0.1583
21473SOL    HW165860   3.334   7.583   5.763 -1.5202 -0.3634  2.4696
21473SOL    HW265861   3.269   7.710   5.714  0.4135  0.7064  2.5551
21474SOL     OW65862   6.235   5.194   5.423 -0.2924 -0.5075  0.2183
21474SOL    HW165863   6.161   5.211   5.365 -0.2330  0.3000  0.3689
21474SOL    HW265864   6.218   5.246   5.501  0.5435 -0.0921  0.1483
21475SOL     OW65865   6.036   6.137   6.527  0.2627  0.3385  0.5088
21475SOL    HW165866   5.972   6.204   6.549  0.0524 -0.1648  1.4976
21475SOL    HW265867   5.984   6.059   6.506  0.5130 -0.5000  2.7216
21476SOL     OW65868   6.740   2.842   2.677  0.1886 -0.2690 -0.3921
21476SOL    HW165869   6.697   2.767   2.718  2.1983 -1.8259 -0.9305
21476SOL    HW265870   6.681   2.916   2.693 -1.2617 -1.6954  1.2760
21477SOL     OW65871   0.601   5.110   7.668  0.6236  0.4371  0.2134
21477SOL    HW165872   0.606   5.043   7.599 -0.5374  0.4317  0.1124
21477SOL    HW265873   0.691   5.121   7.697  0.9787 -0.3927 -0.5196
21478SOL     OW65874   0.987   7.885   7.043 -0.4293 -0.1533  0.3040
21478SOL    HW165875   1.008   7.978   7.041  0.4225 -0.3240  0.9562
21478SOL    HW265876   0.920   7.874   6.975 -0.3076  0.8716  0.0048
21479SOL     OW65877   7.044   2.826   2.840  0.0817 -0.3767  0.1109
21479SOL    HW165878   7.024   2.851   2.750 -0.3629 -0.0964  0.2848
21479SOL    HW265879   7.046   2.730   2.838 -0.0813 -0.3763 -0.1682
21480SOL     OW65880   5.526   5.407   7.626 -0.5137  0.7558 -0.3282
21480SOL    HW165881   5.574   5.419   7.544 -0.0683  0.0375 -0.1764
21480SOL    HW265882   5.590   5.424   7.695 -0.0587 -1.5630 -0.1078
21481SOL     OW65883   6.076   0.783   3.156  0.2404  0.1547 -0.3272
21481SOL    HW165884   6.167   0.809   3.144 -0.2365  1.8324 -0.5099
21481SOL    HW265885   6.075   0.739   3.241  1.0914  0.7897  0.0259
21482SOL     OW65886   3.586   6.403   3.825  0.3702  0.1908 -0.1488
21482SOL    HW165887   3.546   6.452   3.897  2.5031  1.6295  0.1354
21482SOL    HW265888   3.597   6.314   3.861  1.7805  0.9778  1.5453
21483SOL     OW65889   0.275   0.971   7.938  0.1644 -0.0973 -0.4644
21483SOL    HW165890   0.276   0.876   7.928  0.8672 -0.2634  0.9936
21483SOL    HW265891   0.334   0.989   8.010 -2.4084  1.1632  1.5202
21484SOL     OW65892   5.011   3.432   1.779  0.2986  0.0159  0.1791
21484SOL    HW165893   4.960   3.408   1.856  0.3275 -0.7865 -0.0509
21484SOL    HW265894   4.949   3.426   1.706  0.3142  0.6054  0.1116
21485SOL     OW65895   6.681   7.695   2.644  0.3448 -0.3630  0.5630
21485SOL    HW165896   6.718   7.782   2.656 -0.6405  0.1814 -0.2423
21485SOL    HW265897   6.750   7.636   2.675  0.2846  0.7169  2.9719
21486SOL     OW65898   0.392   4.267   7.026  0.4672  0.3923  0.2051
21486SOL    HW165899   0.364   4.222   6.946 -2.0988 -0.7715  1.6316
21486SOL    HW265900   0.380   4.360   7.007 -2.3580  0.0450 -0.0859
21487SOL     OW65901   3.150   1.403   1.769 -0.2365 -0.0298 -0.2046
21487SOL    HW165902   3.175   1.314   1.742 -3.2236 -0.8883 -0.4920
21487SOL    HW265903   3.105   1.390   1.853  1.7128  1.6267  1.1848
21488SOL     OW65904   5.432   2.345   6.263 -0.9124  0.6895 -0.5144
21488SOL    HW165905   5.486   2.268   6.246 -1.4494 -0.3231  1.8984
21488SOL    HW265906   5.486   2.401   6.319 -0.8317  1.7073 -1.5792
21489SOL     OW65907   1.987   1.624   4.274 -0.2689  0.0252 -0.0744
21489SOL    HW165908   2.051   1.675   4.324  0.5142 -0.4316 -0.5850
21489SOL    HW265909   1.932   1.691   4.232 -1.5280  0.4228  2.0503
21490SOL     OW65910   3.632   5.363   0.771  0.2900 -0.4353 -0.7136
21490SOL    HW165911   3.639   5.360   0.676  0.8588  0.2528 -0.6996
21490SOL    HW265912   3.637   5.456   0.792 -2.6642 -0.2931 -0.2067
21491SOL     OW65913   6.715   2.149   2.903  0.2118 -0.5746 -0.0395
21491SOL    HW165914   6.737   2.131   2.995 -1.5639 -1.3136  0.2945
21491SOL    HW265915   6.761   2.081   2.854 -2.2660 -3.0342  0.7701
21492SOL     OW65916   4.522   2.117   6.426 -0.2596 -0.6327 -0.2070
21492SOL    HW165917   4.432   2.086   6.440 -0.9289  0.6730 -1.3366
21492SOL    HW265918   4.575   2.038   6.425 -1.7026 -1.6333 -1.6227
21493SOL     OW65919   5.656   7.343   8.701  0.2244  0.5059 -0.0226
21493SOL    HW165920   5.674   7.387   8.618  1.8399  0.0925  0.0690
21493SOL    HW265921   5.709   7.390   8.765  1.3335 -0.9806  0.2241
21494SOL     OW65922   4.892   3.173   6.045  0.0016 -0.6125 -1.1824
21494SOL    HW165923   4.937   3.256   6.063 -1.5829 -0.0793  0.6251
21494SOL    HW265924   4.957   3.105   6.064  0.6612  0.1747 -0.5572
21495SOL     OW65925   1.106   2.089   6.576  0.5760 -0.1355  0.1003
21495SOL    HW165926   1.145   2.122   6.494  1.4458  0.8014  0.8535
21495SOL    HW265927   1.083   1.999   6.557 -0.1836  0.3582 -1.4968
21496SOL     OW65928   5.430   2.714   6.021  0.0465  0.5000  0.0946
21496SOL    HW165929   5.402   2.625   6.001  1.0524  0.2518 -0.2482
21496SOL    HW265930   5.398   2.730   6.110 -0.9344  0.1380 -0.1859
21497SOL     OW65931   1.225   2.570   0.906  0.3668 -0.0831 -0.1760
21497SOL    HW165932   1.310   2.533   0.882 -0.0475 -0.1193 -1.6927
21497SOL    HW265933   1.166   2.543   0.835 -0.1980  2.6212 -0.8557
21498SOL     OW65934   2.242   6.170   5.079 -0.2585  0.5572  0.8580
21498SOL    HW165935   2.288   6.107   5.024 -1.8169  1.6695 -1.9528
21498SOL    HW265936   2.224   6.122   5.160  0.0524 -2.0657 -0.5024
21499SOL     OW65937   2.093   3.294   8.095 -0.0102 -0.2953  0.2888
21499SOL    HW165938   2.154   3.366   8.083 -0.2376  0.0469  1.0963
21499SOL    HW265939   2.142   3.230   8.147  1.0085 -1.8075 -2.3679
21500SOL     OW65940   1.482   5.584  12.007  0.0665 -0.6241  0.3343
21500SOL    HW165941   1.554   5.598  12.068 -0.5951  0.9086  0.8099
21500SOL    HW265942   1.403   5.586  12.062 -0.9973  4.9174 -0.7389
21501SOL     OW65943   2.735   4.601  11.099 -0.5142  0.1510  0.0332
21501SOL    HW165944   2.713   4.690  11.126 -1.1431  0.7697 -2.2391
21501SOL    HW265945   2.758   4.555  11.180  0.5013  2.5540  1.1898
21502SOL     OW65946   1.153   5.729   1.223  0.5306 -0.2901  0.3528
21502SOL    HW165947   1.116   5.791   1.161 -0.1025 -0.4731  0.5373
21502SOL    HW265948   1.248   5.741   1.217  0.4157  0.6462  0.3388
21503SOL     OW65949   3.159   1.919   9.779 -0.1179  0.6016 -0.1444
21503SOL    HW165950   3.176   1.839   9.829  0.5128  0.7641 -0.0858
21503SOL    HW265951   3.237   1.973   9.794  0.2644  0.5000 -1.6076
21504SOL     OW65952   7.750   1.092   0.842  0.0829 -0.4696  0.1839
21504SOL    HW165953   7.821   1.041   0.881 -2.4949 -2.6912  2.4906
21504SOL    HW265954   7.721   1.039   0.768  0.6754  0.3125 -0.6126
21505SOL     OW65955   3.930   4.585   9.809  0.0847  0.7350 -0.0001
21505SOL    HW165956   3.886   4.516   9.858  0.4938  1.1502  0.9807
21505SOL    HW265957   3.908   4.567   9.717 -1.5885  0.5686  0.3951
21506SOL     OW65958   6.348   2.019   6.259  0.0618 -0.2646  0.1220
21506SOL    HW165959   6.326   2.035   6.351 -0.4092 -0.9582  0.1435
21506SOL    HW265960   6.267   2.039   6.212  0.3445  0.2255 -0.1583
21507SOL     OW65961   7.246   5.178   1.996 -0.6129 -0.2212 -0.3638
21507SOL    HW165962   7.232   5.185   1.902 -2.2080 -2.0939 -0.3369
21507SOL    HW265963   7.162   5.203   2.035 -0.1553 -0.0375  0.5583
21508SOL     OW65964   6.411   5.271   8.470 -0.1014  0.1238  0.0733
21508SOL    HW165965   6.339   5.294   8.528  0.5723 -0.2168  1.0739
21508SOL    HW265966   6.427   5.350   8.419  0.9623  1.3488  2.1427
21509SOL     OW65967   3.366   1.401   6.850  0.3373  0.1403  0.6403
21509SOL    HW165968   3.275   1.376   6.835 -0.2483  1.4229  1.8648
21509SOL    HW265969   3.417   1.328   6.814 -1.1822 -0.8999  0.5101
21510SOL     OW65970   5.438   7.248  10.661 -0.3857  0.1132 -0.2621
21510SOL    HW165971   5.521   7.276  10.701 -0.8322  0.5810  0.3462
21510SOL    HW265972   5.371   7.273  10.724 -0.9141 -1.1698 -0.2923
21511SOL     OW65973   5.060   5.848   5.182  0.1849 -0.2323  0.6446
21511SOL    HW165974   5.134   5.893   5.142 -0.3817  0.8320  0.7630
21511SOL    HW265975   5.005   5.821   5.108 -0.3469  0.8291  0.6360
21512SOL     OW65976   7.552   3.892   0.743 -0.3106 -0.3472  0.1124
21512SOL    HW165977   7.531   3.982   0.718 -1.4940 -0.3392  1.0847
21512SOL    HW265978   7.473   3.858   0.784  0.2477 -1.7098  0.1394
21513SOL     OW65979   0.354   7.945   3.788  0.0516 -0.1822 -0.3612
21513SOL    HW165980   0.432   7.934   3.733 -0.2520 -1.6683 -0.5446
21513SOL    HW265981   0.353   8.038   3.810  2.0549 -0.1893 -0.0764
21514SOL     OW65982   5.672   3.227  10.568 -0.6227  0.0581 -0.0567
21514SOL    HW165983   5.689   3.162  10.500  0.0327 -0.0052  0.1595
21514SOL    HW265984   5.736   3.208  10.636 -1.2195  0.1692  0.5507
21515SOL     OW65985   7.277   3.778   0.888  0.3360  0.0859 -0.0283
21515SOL    HW165986   7.252   3.765   0.797  0.7352 -0.0283 -0.1259
21515SOL    HW265987   7.198   3.811   0.931  0.1643  0.1992 -0.4283
21516SOL     OW65988   0.590   7.526   1.235 -0.1517 -0.1140  0.1482
21516SOL    HW165989   0.603   7.436   1.266 -0.5841 -0.8574 -1.6974
21516SOL    HW265990   0.508   7.523   1.187 -0.1399  1.2653  0.0175
21517SOL     OW65991   6.019   3.951   5.642 -0.0603 -0.0666 -0.2268
21517SOL    HW165992   5.942   3.898   5.624 -1.5261  1.4551  1.2344
21517SOL    HW265993   6.014   4.023   5.579 -0.0194  0.2067  0.0806
21518SOL     OW65994   2.847   3.343   0.360 -0.6020 -0.1378 -0.3353
21518SOL    HW165995   2.809   3.401   0.294 -2.8725  0.0221  1.0218
21518SOL    HW265996   2.785   3.270   0.367 -0.5052 -0.0886  1.6673
21519SOL     OW65997   2.128   0.693   3.117  0.4120  0.0505 -0.2315
21519SOL    HW165998   2.054   0.636   3.138  0.4179 -0.3145 -1.1531
21519SOL    HW265999   2.191   0.636   3.073  1.7478  0.1015  1.4773
21520SOL     OW66000   3.449   5.604   0.341 -0.1130 -0.0909 -0.0835
21520SOL    HW166001   3.498   5.624   0.261  0.7567 -0.1097  0.4281
21520SOL    HW266002   3.378   5.667   0.342  0.4195  0.5273 -0.3965
21521SOL     OW66003   4.071   5.703   3.970 -0.0724  0.3375 -0.4987
21521SOL    HW166004   4.059   5.640   3.899 -0.7374  0.6791 -0.6898
21521SOL    HW266005   4.166   5.704   3.985  0.0578  0.1560 -1.2793
21522SOL     OW66006   5.383   7.551   3.552  0.0638 -0.2407  0.3262
21522SOL    HW166007   5.365   7.595   3.469  1.4027  0.6697  0.4770
21522SOL    HW266008   5.323   7.476   3.554 -0.5475  0.1843 -1.0791
21523SOL     OW66009   0.995   5.090   7.633  0.6174  0.3152 -0.6904
21523SOL    HW166010   1.040   5.041   7.703 -2.1321 -0.8040  0.4218
21523SOL    HW266011   1.012   5.182   7.653 -0.2022  0.0259  1.6052
21524SOL     OW66012   0.840   2.204  12.426 -0.1186 -0.2398 -0.0009
21524SOL    HW166013   0.900   2.139  12.463 -0.4675  0.0043  1.0370
21524SOL    HW266014   0.756   2.158  12.420 -0.7746  0.5294  2.2630
21525SOL     OW66015   1.953   3.303  11.453  0.0765 -0.1522  0.5544
21525SOL    HW166016   2.004   3.377  11.420 -0.8011  0.7523  1.1519
21525SOL    HW266017   1.893   3.342  11.517 -2.1931 -0.9526 -0.9285
21526SOL     OW66018   6.873   2.291  11.754  0.2891  0.3672  0.3275
21526SOL    HW166019   6.828   2.258  11.676  1.6551  0.4714 -0.5420
21526SOL    HW266020   6.942   2.227  11.770 -1.5979 -1.1790  3.1520
21527SOL     OW66021   6.052   6.626   9.377 -0.2610  0.1198  0.0830
21527SOL    HW166022   6.023   6.711   9.408  1.6927  0.3484  1.4154
21527SOL    HW266023   6.031   6.566   9.449  1.8850  0.1932  0.8318
21528SOL     OW66024   1.344   4.605  10.334  0.1515  0.2981 -0.3039
21528SOL    HW166025   1.356   4.566  10.247  0.7581  1.1785 -0.6296
21528SOL    HW266026   1.293   4.541  10.382  3.0792 -2.0057 -0.0320
21529SOL     OW66027   4.490   1.457   8.230 -0.1033  0.1431 -0.0384
21529SOL    HW166028   4.457   1.494   8.148  1.0828  0.6967 -0.2732
21529SOL    HW266029   4.542   1.382   8.204  0.8633  0.7315  0.1383
21530SOL     OW66030   6.226   0.113   5.186  0.0164  0.3367  0.2649
21530SOL    HW166031   6.176   0.187   5.152 -0.7515 -0.5305 -0.5419
21530SOL    HW266032   6.182   0.091   5.268 -1.4445 -0.8823 -0.7930
21531SOL     OW66033   5.107   7.411   0.160 -0.4903  0.2278 -0.3636
21531SOL    HW166034   5.077   7.490   0.115 -1.8464 -0.2303 -0.3263
21531SOL    HW266035   5.157   7.443   0.235 -0.9777  1.0570 -0.3807
21532SOL     OW66036   2.398   6.554  11.613 -0.0334  0.5061 -0.5152
21532SOL    HW166037   2.307   6.525  11.605 -0.2045  0.0114  2.2841
21532SOL    HW266038   2.449   6.486  11.569 -0.9073 -0.1382 -0.5423
21533SOL     OW66039   3.660   4.064   3.332  0.3555  0.0362  0.3982
21533SOL    HW166040   3.663   3.988   3.390  0.6908 -0.5546 -0.3695
21533SOL    HW266041   3.577   4.106   3.351  0.3226 -0.3326  1.0790
21534SOL     OW66042   4.811   5.107   8.336 -0.4100 -0.4152 -0.2131
21534SOL    HW166043   4.755   5.063   8.399 -0.1370 -0.6981 -0.1667
21534SOL    HW266044   4.808   5.052   8.257 -1.4491  0.3927 -0.7635
21535SOL     OW66045   1.583   4.312   8.892 -0.3054 -0.1536 -0.3932
21535SOL    HW166046   1.592   4.310   8.987 -1.4764 -1.0987 -0.2780
21535SOL    HW266047   1.522   4.385   8.876  0.7061  0.6849 -0.5162
21536SOL     OW66048   7.596   7.024   2.217  0.0944 -0.1481  0.0158
21536SOL    HW166049   7.609   7.061   2.304 -0.7792 -1.0453  0.5460
21536SOL    HW266050   7.502   7.033   2.200  0.0610 -1.0399 -0.3323
21537SOL     OW66051   6.451   7.662   8.172  0.0225  0.1605 -0.0161
21537SOL    HW166052   6.362   7.628   8.179  0.1725 -0.1605  0.3833
21537SOL    HW266053   6.507   7.584   8.180  0.4568  0.6628  2.9636
21538SOL     OW66054   6.242   5.611  11.280 -0.6105 -0.1052 -0.2986
21538SOL    HW166055   6.187   5.612  11.201 -1.9486 -0.7636  0.5722
21538SOL    HW266056   6.332   5.608  11.248 -1.1368 -0.4794 -1.7902
21539SOL     OW66057   0.632   2.621  11.124  0.5980 -0.0082  0.1199
21539SOL    HW166058   0.592   2.705  11.146  1.0229  0.0927  0.5176
21539SOL    HW266059   0.666   2.588  11.206  2.1121  0.3327 -0.3316
21540SOL     OW66060   4.100   0.611   8.967 -0.0866  0.0494  0.1440
21540SOL    HW166061   4.039   0.539   8.954 -0.3035  0.3545 -0.5971
21540SOL    HW266062   4.183   0.568   8.989 -0.1725 -0.4339 -0.4536
21541SOL     OW66063   1.819   4.308   2.913  0.1277  0.7449 -0.0614
21541SOL    HW166064   1.788   4.252   2.986  1.0880 -1.8262 -1.4879
21541SOL    HW266065   1.897   4.351   2.947 -1.0323  1.8719  1.3139
21542SOL     OW66066   1.829   2.128   9.046  0.1021 -0.1275 -0.0535
21542SOL    HW166067   1.860   2.196   8.986  1.7479  0.5779  1.4920
21542SOL    HW266068   1.884   2.052   9.026 -1.8299 -1.1409 -1.8763
21543SOL     OW66069   6.636   2.929   2.986 -0.2423 -0.0086  0.2411
21543SOL    HW166070   6.627   3.010   3.036  1.5942  1.1186 -1.1275
21543SOL    HW266071   6.726   2.931   2.952 -0.1950 -2.5402 -0.0125
21544SOL     OW66072   2.977   7.961   7.291  0.1374 -0.4032  0.8327
21544SOL    HW166073   2.888   7.982   7.320  0.5030  0.2279  1.5274
21544SOL    HW266074   2.964   7.901   7.217 -0.9013  0.6442  0.1222
21545SOL     OW66075   6.153   4.461   8.111 -0.7385  0.1668  1.2218
21545SOL    HW166076   6.079   4.494   8.161 -2.1292  0.7664 -1.0920
21545SOL    HW266077   6.118   4.444   8.024  1.8059  0.2985  0.0686
21546SOL     OW66078   5.488   2.779  12.117 -0.6545 -0.0860 -0.0512
21546SOL    HW166079   5.414   2.732  12.155 -0.6617 -0.2570 -0.2794
21546SOL    HW266080   5.511   2.845  12.183 -0.5901 -0.4592  0.3033
21547SOL     OW66081   4.707   3.252   5.350 -0.4792  0.1862  0.0977
21547SOL    HW166082   4.767   3.304   5.404 -2.3708  0.7646  1.7556
21547SOL    HW266083   4.715   3.163   5.385  0.3030  0.0003 -0.5252
21548SOL     OW66084   4.609   6.380   2.866  0.2599 -0.1243  0.4614
21548SOL    HW166085   4.544   6.399   2.933 -1.1569 -2.1818 -0.2429
21548SOL    HW266086   4.663   6.459   2.862 -0.5600  0.6344  2.9037
21549SOL     OW66087   5.590   0.829   5.063 -0.1315 -0.2818 -0.0358
21549SOL    HW166088   5.591   0.771   4.987  1.0505 -0.1131 -0.1691
21549SOL    HW266089   5.525   0.791   5.122  1.4806 -2.4561  0.4262
21550SOL     OW66090   3.861   0.362   9.337 -0.3536 -0.5323 -0.4611
21550SOL    HW166091   3.893   0.291   9.393  1.3265 -0.0554 -0.7513
21550SOL    HW266092   3.802   0.412   9.393 -1.3572 -1.9932 -0.1760
21551SOL     OW66093   1.727   6.871   0.558 -0.0904 -0.0922  0.2758
21551SOL    HW166094   1.784   6.942   0.530 -0.1811  0.2846  1.0116
21551SOL    HW266095   1.737   6.868   0.653 -1.8380  0.4671  0.5121
21552SOL     OW66096   2.673   0.877   9.340 -0.3610  0.0703 -0.7768
21552SOL    HW166097   2.677   0.962   9.384  0.5039 -0.2408 -0.2354
21552SOL    HW266098   2.598   0.833   9.380  0.5212 -0.2782  0.5376
21553SOL     OW66099   7.807   0.589   1.570 -0.5968  0.0643  0.3706
21553SOL    HW166100   7.830   0.596   1.663  1.3884  1.0837 -0.1433
21553SOL    HW266101   7.711   0.589   1.569 -0.7416  2.5722  2.2946
21554SOL     OW66102   1.395   6.937   5.111  0.0367 -0.2387 -0.2012
21554SOL    HW166103   1.482   6.973   5.124 -0.1316  0.1193 -0.0371
21554SOL    HW266104   1.410   6.847   5.085  0.4357 -0.7660  1.6696
21555SOL     OW66105   7.168   5.123  10.082 -0.8529 -0.4374 -0.0382
21555SOL    HW166106   7.202   5.039  10.113 -0.7307 -1.2117 -2.1241
21555SOL    HW266107   7.118   5.101  10.004 -0.9247  1.4386 -0.5625
21556SOL     OW66108   3.171   3.239  12.304  0.3422  0.0857  0.0502
21556SOL    HW166109   3.245   3.285  12.264  1.3414  0.8860  2.6256
21556SOL    HW266110   3.094   3.281  12.266  1.2306  1.0776 -0.7251
21557SOL     OW66111   1.900   2.432  11.050 -0.2630  1.2505  0.3500
21557SOL    HW166112   1.882   2.369  11.119 -1.7268  1.1256 -0.1097
21557SOL    HW266113   1.969   2.391  10.997  1.1064  1.4935  1.8732
21558SOL     OW66114   1.109   4.552   9.801 -0.5952  0.0911  0.9427
21558SOL    HW166115   1.030   4.527   9.850 -1.0329  1.7214  1.1302
21558SOL    HW266116   1.159   4.605   9.863  0.0222  0.1710  0.3799
21559SOL     OW66117   7.907   5.179   0.474 -1.2202 -0.5635 -0.1039
21559SOL    HW166118   7.850   5.107   0.502  0.9898 -2.8549 -1.1495
21559SOL    HW266119   7.994   5.140   0.466  0.1332  2.2878 -0.6167
21560SOL     OW66120   2.108   3.743   0.225  0.2442  0.1303 -0.6279
21560SOL    HW166121   2.198   3.730   0.255 -0.1203  1.7367  1.4329
21560SOL    HW266122   2.116   3.757   0.130  2.2853  1.0301 -0.3820
21561SOL     OW66123   1.445   4.906   0.773  0.6822  0.5850 -0.1605
21561SOL    HW166124   1.384   4.869   0.710  1.2817  0.8717 -0.9305
21561SOL    HW266125   1.390   4.951   0.837  0.0698  0.3619 -0.5263
21562SOL     OW66126   2.383   1.941   9.214 -0.2059 -0.0347  0.3246
21562SOL    HW166127   2.456   1.947   9.275  0.6867 -0.3728 -0.6861
21562SOL    HW266128   2.405   1.868   9.157 -1.5396 -0.4196  0.2543
21563SOL     OW66129   2.701   5.303   5.457 -0.2567 -0.7004 -0.2136
21563SOL    HW166130   2.746   5.220   5.442 -1.4759 -1.5387  0.5955
21563SOL    HW266131   2.629   5.303   5.394 -0.7603 -0.6510  0.3553
21564SOL     OW66132   2.856   1.251   6.705 -0.1045 -0.0190 -0.0938
21564SOL    HW166133   2.840   1.345   6.711 -1.3157 -0.2649  0.8942
21564SOL    HW266134   2.839   1.230   6.613 -1.4394  0.4632  0.0282
21565SOL     OW66135   3.457   7.559  12.251 -0.0060 -0.1856 -0.0591
21565SOL    HW166136   3.494   7.623  12.191 -0.7078 -0.3367 -0.6758
21565SOL    HW266137   3.362   7.576  12.248 -0.1148 -0.6791  0.4425
21566SOL     OW66138   4.811   2.457  12.180  0.0630  0.3166 -0.1072
21566SOL    HW166139   4.793   2.377  12.131  3.3777 -1.8983  1.8629
21566SOL    HW266140   4.744   2.459  12.249 -0.7853 -0.0709 -0.9058
21567SOL     OW66141   6.959   4.101   1.837  0.5090  0.5157  0.1177
21567SOL    HW166142   6.987   4.042   1.907  2.1207  0.2326 -0.7256
21567SOL    HW266143   7.020   4.175   1.843 -0.1408  1.0842 -0.1922
21568SOL     OW66144   6.054   2.237   9.431 -0.7167 -0.4108 -0.0908
21568SOL    HW166145   6.028   2.275   9.348 -1.4452 -1.2679 -0.2725
21568SOL    HW266146   5.987   2.171   9.450 -0.9832  0.2883  1.5539
21569SOL     OW66147   5.398   0.262   5.313  0.1604 -0.2773 -0.5481
21569SOL    HW166148   5.354   0.339   5.274 -0.6626 -1.8199 -2.8995
21569SOL    HW266149   5.329   0.217   5.361  0.0795 -0.6764 -1.0266
21570SOL     OW66150   6.903   0.357   8.015 -0.3524  0.8714  0.3163
21570SOL    HW166151   6.915   0.392   7.927  0.8018  0.0305  0.1202
21570SOL    HW266152   6.822   0.398   8.046 -1.8908 -0.2890 -1.8643
21571SOL     OW66153   4.864   7.943  12.054 -0.5530  0.0100  0.6998
21571SOL    HW166154   4.942   7.942  11.997 -1.8707 -1.1483 -1.2042
21571SOL    HW266155   4.899   7.956  12.142  1.6754  0.8851 -0.2412
21572SOL     OW66156   6.723   7.600  11.709 -0.2776 -0.0204 -0.4673
21572SOL    HW166157   6.744   7.531  11.645 -1.0112  1.8533 -2.8910
21572SOL    HW266158   6.677   7.666  11.658 -1.5207  1.3169  2.2231
21573SOL     OW66159   1.961   5.802   1.095 -0.3021  0.0398 -0.0412
21573SOL    HW166160   1.998   5.801   1.007  0.2512  0.1281  0.1879
21573SOL    HW266161   2.009   5.735   1.143 -0.4925  0.0971  0.2372
21574SOL     OW66162   1.052   4.014   0.891 -0.1352  0.2641 -0.1978
21574SOL    HW166163   0.965   3.974   0.891 -0.7971  1.6234 -1.0431
21574SOL    HW266164   1.076   4.019   0.984 -2.2972  2.5874  0.3406
21575SOL     OW66165   2.537   0.317   1.724 -0.0419 -0.1129 -0.2792
21575SOL    HW166166   2.557   0.365   1.643 -0.3639 -1.8925 -1.4899
21575SOL    HW266167   2.565   0.375   1.794 -0.1751  1.7093 -1.6416
21576SOL     OW66168   1.500   6.100   4.554  0.4155  0.4456  0.2488
21576SOL    HW166169   1.542   6.036   4.611 -1.3855 -0.3924  0.7065
21576SOL    HW266170   1.557   6.177   4.558  2.4170 -0.9528 -0.0028
21577SOL     OW66171   5.473   4.759   5.732  0.0409 -0.1079 -0.0203
21577SOL    HW166172   5.470   4.666   5.709  1.3988 -0.1215 -0.2578
21577SOL    HW266173   5.473   4.805   5.647 -1.3815  0.1619  0.1041
21578SOL     OW66174   1.889   0.365   9.597  0.0210 -0.1642  0.5977
21578SOL    HW166175   1.802   0.330   9.613 -0.4558  1.2958  1.3842
21578SOL    HW266176   1.928   0.372   9.684  0.6124 -0.0212  0.3280
21579SOL     OW66177   7.765   3.525  10.812 -0.0801 -0.2679 -0.6116
21579SOL    HW166178   7.776   3.618  10.794  0.3822  0.1684  1.6142
21579SOL    HW266179   7.839   3.502  10.867 -1.2153 -1.4597  0.4971
21580SOL     OW66180   3.593   5.874   4.357 -0.0734 -0.2457 -0.2540
21580SOL    HW166181   3.615   5.833   4.441  1.1004  1.2535  0.1895
21580SOL    HW266182   3.520   5.820   4.324  1.1775 -2.4944  0.4299
21581SOL     OW66183   2.152   3.482   2.243  0.0523  0.6018 -0.0076
21581SOL    HW166184   2.199   3.425   2.305 -0.9576 -0.0128  0.2108
21581SOL    HW266185   2.179   3.571   2.267  0.7349  0.2855  0.4179
21582SOL     OW66186   6.460   1.965  11.716  0.5359 -0.3612 -0.1541
21582SOL    HW166187   6.552   1.939  11.727 -0.0061 -2.1407  0.6783
21582SOL    HW266188   6.436   2.002  11.801  0.3062 -0.5416 -0.1402
21583SOL     OW66189   3.470   3.995   2.119 -0.0554  0.3657 -0.3910
21583SOL    HW166190   3.410   4.069   2.120 -0.4630  0.0363 -0.0535
21583SOL    HW266191   3.460   3.957   2.032 -1.4635 -0.5743  0.1285
21584SOL     OW66192   3.670   7.684   3.078  0.1341 -0.0977 -0.1928
21584SOL    HW166193   3.765   7.669   3.076  0.3680  1.3335 -1.0005
21584SOL    HW266194   3.661   7.779   3.073 -1.3860 -0.2828 -1.5453
21585SOL     OW66195   0.540   4.536   8.235 -0.5328  0.4617  0.1275
21585SOL    HW166196   0.483   4.490   8.297  0.3316  0.3162  0.8289
21585SOL    HW266197   0.609   4.574   8.289  0.9225 -0.6986 -0.8395
21586SOL     OW66198   5.428   5.039  12.406  0.1666  0.0856  0.2097
21586SOL    HW166199   5.353   5.034  12.346  0.6355  1.1065 -0.4969
21586SOL    HW266200   5.433   5.132  12.430  0.6721 -0.1272  0.9543
21587SOL     OW66201   2.352   2.223   2.251 -0.0092 -0.0646  0.0388
21587SOL    HW166202   2.303   2.142   2.234  0.4816 -0.1666 -0.9490
21587SOL    HW266203   2.327   2.281   2.180  1.4166 -0.1785 -0.5948
21588SOL     OW66204   2.291   1.047   8.382 -0.0886  0.0810  0.2295
21588SOL    HW166205   2.200   1.037   8.410 -0.6238  2.0986 -0.6289
21588SOL    HW266206   2.286   1.060   8.287  1.0824  0.1849  0.1703
21589SOL     OW66207   6.979   5.133   7.201  0.2079  0.0505 -0.2833
21589SOL    HW166208   7.063   5.094   7.224 -0.9814 -1.5765  1.6494
21589SOL    HW266209   6.925   5.059   7.172 -1.7192  0.3400  2.2047
21590SOL     OW66210   0.126   1.736   1.058  0.0235 -0.0900 -0.2243
21590SOL    HW166211   0.052   1.759   1.002  0.5622  1.1135 -0.4660
21590SOL    HW266212   0.115   1.642   1.075 -2.4400  0.3556  1.0755
21591SOL     OW66213   4.299   2.402   9.552 -0.5485 -1.0383 -0.2397
21591SOL    HW166214   4.277   2.393   9.459 -0.4686 -1.3229 -0.2344
21591SOL    HW266215   4.284   2.494   9.572 -1.2392 -1.1211 -0.3584
21592SOL     OW66216   4.020   4.007  11.367 -0.4918 -0.0930 -0.7553
21592SOL    HW166217   3.949   3.943  11.357 -0.0456 -1.1577  1.9532
21592SOL    HW266218   3.979   4.081  11.412  0.0455 -0.7390  0.8812
21593SOL     OW66219   0.813   3.192   0.544  0.2030 -0.2276  0.3249
21593SOL    HW166220   0.743   3.180   0.608 -1.4064  0.5530 -1.2284
21593SOL    HW266221   0.872   3.119   0.559 -1.1189 -1.1095  1.4445
21594SOL     OW66222   0.750   0.851   3.890 -0.3767  0.2346  0.4285
21594SOL    HW166223   0.790   0.926   3.847 -1.0122  0.0092 -0.6156
21594SOL    HW266224   0.822   0.790   3.906 -0.2656 -0.2129 -1.5152
21595SOL     OW66225   1.018   0.680   0.053  0.1960  0.2970 -0.5307
21595SOL    HW166226   1.016   0.602   0.109  1.1074 -2.2750 -3.7850
21595SOL    HW266227   1.102   0.721   0.071 -0.0013  0.1706  0.7457
21596SOL     OW66228   3.684   1.055   7.949 -0.3794 -0.1705  1.1717
21596SOL    HW166229   3.624   1.002   8.001 -0.0630 -1.0376  0.6646
21596SOL    HW266230   3.771   1.026   7.975 -0.2143 -0.8000 -0.0006
21597SOL     OW66231   0.481   0.504   5.178 -0.2178 -0.5027 -0.2666
21597SOL    HW166232   0.497   0.485   5.271 -0.7791 -2.4710 -0.5255
21597SOL    HW266233   0.568   0.519   5.142 -0.0790  1.6858  0.8055
21598SOL     OW66234   7.657   0.139   6.867  0.2003  0.0202  0.1563
21598SOL    HW166235   7.662   0.232   6.843  0.2678 -0.4507 -1.8851
21598SOL    HW266236   7.597   0.137   6.941  0.5281  1.7308  0.5250
21599SOL     OW66237   1.301   2.183   3.314 -0.0740 -0.3210 -0.1284
21599SOL    HW166238   1.256   2.212   3.234  0.6096 -0.1190 -0.4465
21599SOL    HW266239   1.338   2.098   3.291 -2.0083 -1.4789  0.7793
21600SOL     OW66240   0.037   7.690   1.899 -0.2068  0.1629 -0.6460
21600SOL    HW166241   0.093   7.647   1.963  1.0473  1.2895 -0.9447
21600SOL    HW266242  -0.040   7.719   1.949 -0.3296 -0.9916 -0.1401
21601SOL     OW66243   3.918   7.151   6.494  0.2218 -0.6604 -0.7603
21601SOL    HW166244   3.880   7.238   6.487  0.5693 -0.2868  1.2123
21601SOL    HW266245   4.011   7.163   6.473  0.2610 -0.5584 -0.5312
21602SOL     OW66246   3.979   7.439   5.962 -0.0690  0.0811  0.3049
21602SOL    HW166247   3.893   7.436   5.919  0.1870 -1.7319 -0.1762
21602SOL    HW266248   4.041   7.444   5.889  0.2581  0.8363  0.6311
21603SOL     OW66249   2.056   0.178   4.377 -0.2071  0.0324 -0.0597
21603SOL    HW166250   2.107   0.110   4.421 -0.6956  0.6095  1.4396
21603SOL    HW266251   2.099   0.188   4.291  1.1817 -0.6494  0.5263
21604SOL     OW66252   3.531   4.860  12.251  0.3227  0.1389 -0.2229
21604SOL    HW166253   3.470   4.877  12.323  0.8328 -1.0600  0.5344
21604SOL    HW266254   3.475   4.841  12.176 -0.2321 -0.1656  0.2601
21605SOL     OW66255   6.532   4.935   2.285 -0.2520 -0.4296 -0.2925
21605SOL    HW166256   6.485   4.876   2.344 -0.3377  0.0562  0.1319
21605SOL    HW266257   6.464   4.991   2.247 -0.0024  0.5686  0.6568
21606SOL     OW66258   1.924   1.711   5.800 -0.0863  0.3423 -1.2325
21606SOL    HW166259   1.858   1.703   5.730 -0.2148 -0.5960 -1.0205
21606SOL    HW266260   1.911   1.799   5.835 -3.7459 -0.9289  1.2423
21607SOL     OW66261   3.453   5.486  11.578 -0.0876  0.6864 -0.1230
21607SOL    HW166262   3.432   5.518  11.490 -0.5303  1.3369  0.2112
21607SOL    HW266263   3.384   5.422  11.598 -0.1531  0.7535 -0.1338
21608SOL     OW66264   4.517   2.214   8.694  0.1948  0.4538 -0.1174
21608SOL    HW166265   4.510   2.189   8.602  0.8510 -0.7656  0.1443
21608SOL    HW266266   4.608   2.197   8.717  0.2508  1.5759  0.5331
21609SOL     OW66267   0.513   0.185   4.123 -0.2775 -0.4872  0.6071
21609SOL    HW166268   0.540   0.104   4.168 -1.2684 -0.6246  0.9916
21609SOL    HW266269   0.473   0.238   4.192  1.3993  0.8696  0.6234
21610SOL     OW66270   0.094   5.365   8.482  0.4435 -0.2229 -0.3510
21610SOL    HW166271   0.147   5.300   8.527 -0.4055  0.7563  2.2353
21610SOL    HW266272   0.029   5.314   8.432  1.0259 -1.3476  0.0213
21611SOL     OW66273   1.340   4.941  11.333 -0.8131  0.2974  0.6382
21611SOL    HW166274   1.338   5.036  11.329 -0.4358  0.3568  1.6148
21611SOL    HW266275   1.358   4.921  11.425 -2.0239 -0.7266  0.6938
21612SOL     OW66276   2.692   6.323   9.716  0.2865  1.1391  0.2614
21612SOL    HW166277   2.688   6.235   9.754 -1.4317  0.6557 -0.9388
21612SOL    HW266278   2.712   6.380   9.790 -0.3147 -0.0726  1.4014
21613SOL     OW66279   1.271   6.248  10.076  0.4175 -0.4798  0.1375
21613SOL    HW166280   1.304   6.256  10.165 -1.6876  2.3682  0.8119
21613SOL    HW266281   1.209   6.175  10.080 -0.5088  0.3343  1.3530
21614SOL     OW66282   0.084   4.721   9.564  0.6200 -0.2660  0.5031
21614SOL    HW166283   0.133   4.645   9.534  1.9304  0.5077  0.6146
21614SOL    HW266284   0.010   4.727   9.503 -0.1424 -2.2516  1.1640
21615SOL     OW66285   0.223   4.158   0.873  0.6954 -0.2696  0.0123
21615SOL    HW166286   0.199   4.225   0.809 -0.8723  0.2090  1.0326
21615SOL    HW266287   0.315   4.175   0.892  0.0510  2.5857  1.2598
21616SOL     OW66288   6.057   6.179   8.129 -0.2393  0.4302 -0.3339
21616SOL    HW166289   6.055   6.260   8.078 -0.8372 -0.7164 -2.2138
21616SOL    HW266290   5.973   6.178   8.176 -0.2238  0.9012 -0.2907
21617SOL     OW66291   1.157   6.927   7.478 -0.2222  0.2209  0.0966
21617SOL    HW166292   1.120   6.932   7.391  0.5123 -0.4870 -0.2718
21617SOL    HW266293   1.221   6.999   7.481  0.5125 -0.3921 -0.3425
21618SOL     OW66294   0.608   1.828   8.215  0.3083  0.4898 -0.1165
21618SOL    HW166295   0.641   1.905   8.170 -1.1687  1.0344 -0.3130
21618SOL    HW266296   0.513   1.829   8.200  0.1670 -0.9812  0.4501
21619SOL     OW66297   7.662   5.351   4.152  0.3679  0.6018  0.0974
21619SOL    HW166298   7.574   5.315   4.148  0.6949 -0.1464 -0.6530
21619SOL    HW266299   7.689   5.361   4.061  1.4495 -0.1913  0.3032
21620SOL     OW66300   0.622   0.425  11.193 -0.4847 -0.3884 -0.0617
21620SOL    HW166301   0.535   0.401  11.226 -0.3294  0.3507  0.9236
21620SOL    HW266302   0.679   0.353  11.222 -0.3131  0.3347  1.5396
21621SOL     OW66303   5.102   7.198   7.100 -0.3790  0.4793 -0.3051
21621SOL    HW166304   5.132   7.108   7.107 -1.5615  0.1811  1.3140
21621SOL    HW266305   5.134   7.227   7.014 -0.1849 -1.5314 -0.9619
21622SOL     OW66306   7.928   3.491   2.081 -0.5351  0.3420  0.5253
21622SOL    HW166307   7.850   3.506   2.134 -0.1651  1.8719  0.6803
21622SOL    HW266308   7.895   3.478   1.992 -0.9733  0.9714  0.5941
21623SOL     OW66309   2.552   0.252   9.360 -0.5804 -1.0592  0.1189
21623SOL    HW166310   2.460   0.246   9.388 -1.8764 -0.2859 -3.4549
21623SOL    HW266311   2.563   0.179   9.299  0.9003 -0.5906 -0.2177
21624SOL     OW66312   0.998   6.657   0.512  0.3232 -0.2744 -0.1340
21624SOL    HW166313   1.056   6.716   0.561  0.2038 -0.8178  0.6826
21624SOL    HW266314   1.048   6.635   0.433  1.2181 -0.6717  0.5210
21625SOL     OW66315   3.762   0.032   5.204 -0.2257  0.6823  0.4751
21625SOL    HW166316   3.850   0.043   5.239  0.2205 -0.0517 -0.3766
21625SOL    HW266317   3.728  -0.046   5.249 -0.3344  0.7896  0.5813
21626SOL     OW66318   1.767   7.714   7.522 -0.2496 -0.4187 -0.0869
21626SOL    HW166319   1.805   7.794   7.557 -0.1014 -0.3550 -0.3909
21626SOL    HW266320   1.704   7.686   7.589  1.2980 -1.2904  1.0626
21627SOL     OW66321   4.182   7.318   1.721 -0.3770  0.2674  0.8540
21627SOL    HW166322   4.207   7.408   1.741 -1.8380  1.2515 -1.2851
21627SOL    HW266323   4.111   7.299   1.783 -0.6831  0.9625  0.7343
21628SOL     OW66324   3.804   4.740   2.439 -0.9285 -0.3070 -0.2274
21628SOL    HW166325   3.717   4.771   2.463 -0.5779 -0.5696  1.4937
21628SOL    HW266326   3.863   4.786   2.498 -0.0130 -1.0778 -0.5182
21629SOL     OW66327   5.503   5.086   6.625 -0.2314 -0.1337  0.4599
21629SOL    HW166328   5.541   5.108   6.710 -0.5256 -3.1166  1.4674
21629SOL    HW266329   5.574   5.100   6.563  0.4072  0.7893  1.3549
21630SOL     OW66330   0.566   7.542   7.681 -0.5786 -0.3072  0.1555
21630SOL    HW166331   0.638   7.487   7.712  0.7174  1.6964  0.8436
21630SOL    HW266332   0.600   7.585   7.603 -1.3565  0.0164 -0.0159
21631SOL     OW66333   3.631   5.978   6.874 -0.2267  0.1693 -0.6228
21631SOL    HW166334   3.631   5.934   6.960 -1.9167 -0.0152 -0.6911
21631SOL    HW266335   3.715   5.953   6.835 -1.5171 -4.1299 -1.1910
21632SOL     OW66336   5.724   1.895  10.733 -1.2197  0.5150 -0.3341
21632SOL    HW166337   5.798   1.841  10.705 -0.9786  0.8060 -0.2642
21632SOL    HW266338   5.745   1.921  10.822 -0.7970  1.6348 -0.7393
21633SOL     OW66339   5.370   3.703  11.646  0.6148 -0.2504 -0.4997
21633SOL    HW166340   5.353   3.797  11.637 -0.2450 -0.4046 -0.6267
21633SOL    HW266341   5.465   3.695  11.640  0.7061  0.6196 -0.3987
21634SOL     OW66342   6.687   3.644  10.797  0.1151  0.2621  0.5499
21634SOL    HW166343   6.669   3.611  10.710 -1.5042 -0.4582  1.1127
21634SOL    HW266344   6.780   3.627  10.811  0.3348  0.1458 -0.9088
21635SOL     OW66345   5.429   4.797   4.290  0.1580  0.1095  0.2538
21635SOL    HW166346   5.485   4.772   4.217 -0.6140 -1.0099  0.0109
21635SOL    HW266347   5.364   4.856   4.252 -0.5736 -0.9021 -0.1052
21636SOL     OW66348   3.764   6.452   5.886  0.6548  0.1938 -0.9035
21636SOL    HW166349   3.684   6.497   5.859 -0.4973 -0.0734  1.7775
21636SOL    HW266350   3.812   6.516   5.938 -0.4679 -1.1325  2.0014
21637SOL     OW66351   0.524   5.418   2.841  0.4735 -0.4122 -0.5691
21637SOL    HW166352   0.522   5.337   2.893  0.1572 -0.2769 -0.3636
21637SOL    HW266353   0.565   5.393   2.759  1.1047 -0.6029 -0.2054
21638SOL     OW66354   3.432   4.818   0.070 -0.7908  0.5307 -0.0822
21638SOL    HW166355   3.508   4.799   0.125 -0.5873  1.2298 -0.1183
21638SOL    HW266356   3.391   4.732   0.056  0.7586 -0.0949 -1.1798
21639SOL     OW66357   3.617   7.511   2.443 -0.2997  0.0407  0.4750
21639SOL    HW166358   3.674   7.544   2.373 -0.6611  1.7816  0.9580
21639SOL    HW266359   3.546   7.575   2.449 -1.5847 -1.3516  0.8353
21640SOL     OW66360   2.107   3.580  10.480 -0.2224 -0.6314  0.0044
21640SOL    HW166361   2.029   3.558  10.531 -0.2376 -1.6894 -0.4603
21640SOL    HW266362   2.072   3.629  10.405 -0.1742  1.1664  1.0918
21641SOL     OW66363   1.984   3.481   5.864 -0.3129  0.1509  0.2670
21641SOL    HW166364   1.901   3.499   5.909 -0.2367 -0.6239  0.7309
21641SOL    HW266365   2.009   3.393   5.893 -0.4110 -0.5097 -1.5070
21642SOL     OW66366   0.840   1.700  11.362 -0.2144  0.3472  0.2836
21642SOL    HW166367   0.914   1.685  11.422 -0.8554  1.1647  1.3021
21642SOL    HW266368   0.792   1.773  11.400  0.7057  2.6060 -2.5131
21643SOL     OW66369   6.545   2.012   4.759 -0.4542  0.2330  0.1428
21643SOL    HW166370   6.500   2.061   4.689 -0.2935  1.0749  0.6126
21643SOL    HW266371   6.543   1.921   4.729 -0.9948  0.4825 -0.6354
21644SOL     OW66372   5.267   7.899   1.786  0.4511 -0.1562  0.0752
21644SOL    HW166373   5.183   7.903   1.832  0.7458 -0.8680  0.6899
21644SOL    HW266374   5.332   7.897   1.856  0.9845  0.3576 -0.4008
21645SOL     OW66375   7.026   0.979   1.927  0.0840 -0.0363  0.5833
21645SOL    HW166376   7.121   0.971   1.938 -0.0717 -2.4632  0.7235
21645SOL    HW266377   6.995   0.888   1.926 -2.1229  0.6764 -0.5329
21646SOL     OW66378   3.424   6.860   4.887  0.3739 -0.3457 -0.1799
21646SOL    HW166379   3.481   6.800   4.839 -0.2099  0.5013 -2.0292
21646SOL    HW266380   3.336   6.824   4.876  0.1932  0.0368 -0.0242
21647SOL     OW66381   6.989   3.080  10.575 -0.0806  0.1329  0.0284
21647SOL    HW166382   7.061   3.099  10.514 -0.8096  2.1914 -0.2759
21647SOL    HW266383   6.976   3.161  10.623  0.1505 -1.3091  2.6689
21648SOL     OW66384   7.935   6.189   9.738  0.4142 -0.2770  0.3783
21648SOL    HW166385   7.841   6.204   9.741  0.1386 -1.8835  0.3850
21648SOL    HW266386   7.958   6.158   9.826  0.9441  0.0324  0.3569
21649SOL     OW66387   2.250   3.300  11.537  0.3171  0.2209  0.1714
21649SOL    HW166388   2.313   3.314  11.467  0.5600 -1.2953  0.0603
21649SOL    HW266389   2.191   3.233  11.504  0.2276 -0.2696  1.2673
21650SOL     OW66390   2.351   7.419   0.404  0.0278  0.0119  0.1810
21650SOL    HW166391   2.374   7.343   0.457  2.2353 -0.5391 -1.4286
21650SOL    HW266392   2.327   7.383   0.319  2.9838  1.0617 -1.2497
21651SOL     OW66393   3.805   1.470  10.985  0.0577  0.0543  0.8484
21651SOL    HW166394   3.716   1.504  10.974 -0.4254 -1.2199  0.5849
21651SOL    HW266395   3.843   1.473  10.897  0.1944  0.3795  0.9177
21652SOL     OW66396   3.281   2.192   8.278 -0.0275 -0.0726 -1.2504
21652SOL    HW166397   3.253   2.198   8.186 -0.7146  0.5349 -1.0117
21652SOL    HW266398   3.360   2.245   8.283 -0.6881  0.9257 -1.2318
21653SOL     OW66399   1.005   7.647  12.330  0.4466 -0.2842  0.6804
21653SOL    HW166400   1.082   7.644  12.387  0.3468  0.2351  0.8427
21653SOL    HW266401   1.040   7.626  12.243  0.5059 -1.6258  1.0161
21654SOL     OW66402   3.212   7.123   6.103  0.1961  0.8752 -0.0607
21654SOL    HW166403   3.276   7.096   6.170 -0.1452  1.6210  0.5858
21654SOL    HW266404   3.203   7.217   6.116 -2.8715  0.4882  1.5627
21655SOL     OW66405   4.677   0.449  11.911 -0.2468 -0.0133 -0.3369
21655SOL    HW166406   4.688   0.536  11.948 -0.8108  0.7732 -1.9086
21655SOL    HW266407   4.697   0.389  11.983 -2.3119  1.3883  1.5330
21656SOL     OW66408   2.256   7.835  11.745 -0.5379  0.1818 -0.2077
21656SOL    HW166409   2.273   7.746  11.716  1.7825  1.1027 -2.0229
21656SOL    HW266410   2.269   7.833  11.839 -1.8219 -1.6264 -0.0346
21657SOL     OW66411   4.956   2.844  10.089 -0.7289  0.5349  0.0116
21657SOL    HW166412   4.895   2.770  10.090 -1.1096  0.8435  0.3103
21657SOL    HW266413   4.940   2.886  10.004 -0.1231 -0.0339 -0.3925
21658SOL     OW66414   5.466   0.825   2.141  0.2544 -0.0228 -0.0346
21658SOL    HW166415   5.458   0.874   2.223 -0.9008 -0.7085  0.2990
21658SOL    HW266416   5.375   0.807   2.115  0.5738  0.6868 -1.7949
21659SOL     OW66417   5.792   4.052   2.450  0.3152  0.2401 -0.0592
21659SOL    HW166418   5.779   3.972   2.500 -0.6295  0.5328  0.1862
21659SOL    HW266419   5.877   4.085   2.479  0.7926 -0.7617 -0.3002
21660SOL     OW66420   0.418   3.820   4.358  0.3196 -0.0783  0.4046
21660SOL    HW166421   0.366   3.859   4.288 -0.7286 -3.4833 -0.9346
21660SOL    HW266422   0.376   3.849   4.439 -1.5037  0.0811 -0.5483
21661SOL     OW66423   0.843   3.919  10.914 -0.2230  0.8787  0.3853
21661SOL    HW166424   0.802   3.900  10.998 -0.1420 -0.2490  0.1892
21661SOL    HW266425   0.915   3.856  10.908  0.8528  2.0908  0.2303
21662SOL     OW66426   3.665   1.581  11.926  0.6689  0.1689  0.0693
21662SOL    HW166427   3.580   1.603  11.963  0.4507  1.1652 -0.9854
21662SOL    HW266428   3.674   1.637  11.850  1.7002 -0.8662 -0.6088
21663SOL     OW66429   3.891   4.882  11.723  0.8908  0.4708  0.0106
21663SOL    HW166430   3.834   4.933  11.780 -0.2860 -0.3215 -0.4230
21663SOL    HW266431   3.889   4.794  11.759 -0.8778 -0.3516 -1.8754
21664SOL     OW66432   3.803   0.783   2.192 -0.3249  0.0860  0.6775
21664SOL    HW166433   3.881   0.768   2.246 -1.0821  0.1558  1.8353
21664SOL    HW266434   3.734   0.734   2.237 -0.6105 -1.4392 -1.2871
21665SOL     OW66435   5.691   0.016  11.926 -0.2017  0.8297 -0.2391
21665SOL    HW166436   5.747  -0.061  11.936 -0.8269  0.3328 -0.5297
21665SOL    HW266437   5.629  -0.008  11.857 -1.1910  1.1397  0.5314
21666SOL     OW66438   6.020   4.414   2.487 -0.2355 -0.2991  0.2890
21666SOL    HW166439   5.990   4.490   2.536 -1.5370 -0.8310  0.3713
21666SOL    HW266440   5.944   4.387   2.436  0.2021 -1.5354  0.2537
21667SOL     OW66441   4.209   6.896   2.052 -0.0160 -0.5611 -0.7914
21667SOL    HW166442   4.293   6.916   2.010 -0.4683 -0.8789 -1.8821
21667SOL    HW266443   4.149   6.961   2.015 -0.1381  0.0624  0.4487
21668SOL     OW66444   6.285   0.855   8.381  0.7553  0.2514 -0.0777
21668SOL    HW166445   6.268   0.803   8.460  1.6722  0.9805  0.6222
21668SOL    HW266446   6.202   0.900   8.364  0.5213  0.0114  0.4181
21669SOL     OW66447   6.470   2.874   8.078  0.2502 -0.1437  0.1091
21669SOL    HW166448   6.522   2.892   8.000  1.2062 -0.2184  0.7020
21669SOL    HW266449   6.482   2.953   8.132  0.2294 -0.4055  0.4984
21670SOL     OW66450   1.829   0.300   8.672 -0.0851 -0.3810 -0.5470
21670SOL    HW166451   1.787   0.362   8.613  0.7511  0.7054 -0.0338
21670SOL    HW266452   1.784   0.217   8.656 -0.7877  0.2026 -1.7149
21671SOL     OW66453   0.696   7.334   7.220 -0.5708 -0.0016  0.6833
21671SOL    HW166454   0.766   7.278   7.185  0.1779  2.5857 -2.4174
21671SOL    HW266455   0.616   7.296   7.186 -0.1370  0.2868 -0.7274
21672SOL     OW66456   7.663   4.804   6.077  0.6419  0.2973 -0.0472
21672SOL    HW166457   7.719   4.878   6.101  1.5110 -0.1161 -0.7393
21672SOL    HW266458   7.724   4.734   6.052 -0.1696 -0.5490  0.2805
21673SOL     OW66459   5.851   1.080  11.595 -0.2964  0.1410 -0.4665
21673SOL    HW166460   5.763   1.111  11.616 -0.2587 -0.8989  1.4867
21673SOL    HW266461   5.837   1.001  11.543 -0.5461 -0.1173 -0.0169
21674SOL     OW66462   3.173   1.299   5.990 -0.4674 -0.0425  0.3315
21674SOL    HW166463   3.219   1.222   5.956  1.0367  0.6883  0.6483
21674SOL    HW266464   3.127   1.266   6.067 -2.4416 -1.3009 -1.2652
21675SOL     OW66465   4.378   5.021   4.847 -0.7693  0.1787  0.5807
21675SOL    HW166466   4.355   5.031   4.939 -2.2710  0.5066  0.2006
21675SOL    HW266467   4.317   4.956   4.813 -0.2064  0.0212 -0.1803
21676SOL     OW66468   2.728   1.608   5.353 -0.2411  0.2036 -0.2037
21676SOL    HW166469   2.768   1.680   5.305  0.2205 -0.0119 -0.1514
21676SOL    HW266470   2.718   1.538   5.288 -0.8632  0.3788 -0.2986
21677SOL     OW66471   1.481   1.647   1.297  0.0054 -0.1017 -0.4354
21677SOL    HW166472   1.432   1.721   1.333  1.4822  0.7433 -0.0349
21677SOL    HW266473   1.428   1.570   1.318 -1.5069  0.8189 -0.7466
21678SOL     OW66474   3.201   4.994   9.548 -0.3367 -0.0613  0.1385
21678SOL    HW166475   3.228   4.938   9.621 -1.5043 -0.6083  0.1680
21678SOL    HW266476   3.226   4.945   9.469  0.6644  0.4013  0.1534
21679SOL     OW66477   4.266   5.496  10.228 -0.6625  0.6034  1.0001
21679SOL    HW166478   4.326   5.565  10.258  0.0707  0.7107 -0.5943
21679SOL    HW266479   4.313   5.453  10.156 -2.4805  0.7135 -0.3326
21680SOL     OW66480   0.276   6.685   2.774  0.0470  0.5784 -0.0286
21680SOL    HW166481   0.200   6.628   2.782  1.0768 -0.9445 -0.5360
21680SOL    HW266482   0.333   6.640   2.711  1.4106  1.6179  0.4063
21681SOL     OW66483   6.616   3.014   9.997 -0.4261  0.2913  0.1605
21681SOL    HW166484   6.663   2.947   9.948 -0.5767  0.3185 -0.0221
21681SOL    HW266485   6.643   3.001  10.088 -0.2359  0.1659  0.0869
21682SOL     OW66486   2.358   7.313  12.138  0.5594  0.2263 -0.5075
21682SOL    HW166487   2.434   7.267  12.103  0.3092 -0.3364 -0.3191
21682SOL    HW266488   2.369   7.310  12.233 -0.4104 -1.1221 -0.4097
21683SOL     OW66489   4.120   1.388   1.754  0.0864 -0.0279 -0.0995
21683SOL    HW166490   4.134   1.408   1.847 -0.0211 -2.7186  0.6035
21683SOL    HW266491   4.036   1.342   1.753  0.9347 -1.6417 -1.2137
21684SOL     OW66492   7.583   3.846   9.978  0.2523  0.2064  0.0765
21684SOL    HW166493   7.605   3.846  10.072 -2.1387  2.3687  0.7393
21684SOL    HW266494   7.668   3.846   9.934  1.4476 -0.3733  2.2470
21685SOL     OW66495   1.461   6.368   8.753 -0.7277 -0.3894  0.5702
21685SOL    HW166496   1.436   6.279   8.779  0.4952 -0.8983  0.0584
21685SOL    HW266497   1.385   6.400   8.704 -1.0180 -1.3182  0.3827
21686SOL     OW66498   1.690   2.193   3.553 -0.0665  0.3454  0.2998
21686SOL    HW166499   1.785   2.194   3.568  0.1431  0.3890 -0.9330
21686SOL    HW266500   1.679   2.137   3.476 -1.0789  0.0950  0.6196
21687SOL     OW66501   6.717   7.279   8.755 -0.0012  0.0494  0.2678
21687SOL    HW166502   6.752   7.231   8.830  1.4029 -1.3721 -1.2260
21687SOL    HW266503   6.665   7.215   8.707 -3.0500  1.5549  1.2278
21688SOL     OW66504   1.534   4.758  10.775 -0.1477 -0.2946  0.2905
21688SOL    HW166505   1.551   4.688  10.711 -1.1933 -0.6886  0.4240
21688SOL    HW266506   1.556   4.719  10.860 -0.6400 -0.4436  0.3555
21689SOL     OW66507   2.564   6.986  10.866  0.4367 -0.3239  0.5303
21689SOL    HW166508   2.570   6.952  10.955  1.2769  0.7606  0.9190
21689SOL    HW266509   2.523   7.072  10.876  1.0866  0.0614 -0.0493
21690SOL     OW66510   4.781   2.083  11.476  0.0788 -0.3315  0.1400
21690SOL    HW166511   4.846   2.144  11.440  0.7550 -1.0971  0.0355
21690SOL    HW266512   4.699   2.131  11.470  0.4059  0.1349 -1.0543
21691SOL     OW66513   5.846   2.216   0.884 -0.0051 -0.6679  0.0770
21691SOL    HW166514   5.941   2.225   0.894  0.1811 -1.8886 -0.4369
21691SOL    HW266515   5.827   2.130   0.922 -1.2477  0.4800  2.2459
21692SOL     OW66516   4.705   4.160   4.744 -0.6418  0.3467  0.7018
21692SOL    HW166517   4.781   4.183   4.798  0.9324 -1.7065 -0.5029
21692SOL    HW266518   4.643   4.120   4.805  1.2298 -2.2239  1.0853
21693SOL     OW66519   3.821   2.862   0.044  0.0871 -0.3605 -0.1405
21693SOL    HW166520   3.777   2.871   0.128 -0.8521  0.2303 -0.6779
21693SOL    HW266521   3.914   2.856   0.066  0.0056  1.3742  0.8744
21694SOL     OW66522   1.866   6.111   4.574 -0.3482  0.1491  0.1936
21694SOL    HW166523   1.851   6.017   4.566 -0.0299  0.1853 -1.0954
21694SOL    HW266524   1.870   6.143   4.484 -1.5796  1.6048  0.6005
21695SOL     OW66525   1.638   7.486   4.627 -0.2654 -0.2903  0.3528
21695SOL    HW166526   1.621   7.545   4.700 -0.4823  1.5210 -1.0798
21695SOL    HW266527   1.678   7.541   4.560  0.0151 -1.8929 -0.8774
21696SOL     OW66528   5.346   3.118   1.860 -0.3428  0.0258  0.2890
21696SOL    HW166529   5.358   3.101   1.953 -0.5506  1.4003  0.5888
21696SOL    HW266530   5.386   3.204   1.846 -0.9429  0.1553 -0.7389
21697SOL     OW66531   1.828   6.610   1.814  0.1036  0.0446  0.1993
21697SOL    HW166532   1.771   6.683   1.838 -1.1739 -0.8552  0.0080
21697SOL    HW266533   1.776   6.557   1.754  1.0027 -1.0334  0.3322
21698SOL     OW66534   7.080   3.629   3.764 -0.3362 -0.1236  0.0194
21698SOL    HW166535   7.064   3.605   3.855 -0.8105 -0.3920 -0.1315
21698SOL    HW266536   7.175   3.634   3.757 -0.2566 -0.9730  0.3185
21699SOL     OW66537   7.627   5.478   7.434 -0.0602 -0.6136  0.0173
21699SOL    HW166538   7.663   5.422   7.502  2.3279  0.1129 -0.5687
21699SOL    HW266539   7.678   5.559   7.439 -0.7449 -0.0138 -1.7270
21700SOL     OW66540   5.535   0.631  11.320  0.4864 -0.1384 -0.2606
21700SOL    HW166541   5.466   0.651  11.257 -0.5544 -1.6744  0.3464
21700SOL    HW266542   5.615   0.633  11.268 -0.1535  0.2746 -1.2679
21701SOL     OW66543   6.818   2.359   2.251  0.3021  0.1664  0.3578
21701SOL    HW166544   6.846   2.269   2.264  0.2320  0.1600  0.4646
21701SOL    HW266545   6.872   2.409   2.313  0.4007  0.2083  0.2402
21702SOL     OW66546   4.898   2.946   5.579  0.1740  0.4274 -0.0693
21702SOL    HW166547   4.822   2.951   5.521  0.4381  0.0421 -0.4605
21702SOL    HW266548   4.874   2.997   5.656 -0.3540  0.5769 -0.3324
21703SOL     OW66549   6.688   1.668   5.509  0.4093  0.2517  0.2479
21703SOL    HW166550   6.607   1.712   5.534  0.0166  0.0010 -0.5890
21703SOL    HW266551   6.727   1.725   5.442  1.1725  0.6132  0.9672
21704SOL     OW66552   7.140   2.465  11.102 -0.1994  0.6163 -0.0255
21704SOL    HW166553   7.095   2.386  11.129  0.0949  0.4195 -0.1102
21704SOL    HW266554   7.221   2.467  11.154  0.4168  0.1825 -0.9400
21705SOL     OW66555   4.005   7.378   7.626 -0.1173  0.1469 -0.9063
21705SOL    HW166556   4.101   7.374   7.623 -0.1259  0.2657 -1.4476
21705SOL    HW266557   3.983   7.358   7.717  0.4378  0.4345 -0.7057
21706SOL     OW66558   7.000   5.632   2.702  0.5216 -0.0472 -0.4295
21706SOL    HW166559   7.050   5.706   2.735  0.7323  0.3626 -1.6071
21706SOL    HW266560   7.062   5.560   2.700  1.1804  0.5050 -2.0645
21707SOL     OW66561   4.015   6.059   2.770  0.8345 -0.0007  0.1244
21707SOL    HW166562   4.087   6.121   2.762  1.6351 -0.9599 -0.3691
21707SOL    HW266563   3.971   6.083   2.852  1.4118  0.9066  0.1764
21708SOL     OW66564   1.375   4.958   4.950  0.2859 -1.2148 -0.2321
21708SOL    HW166565   1.427   5.013   4.892  0.9014 -0.6264  0.8467
21708SOL    HW266566   1.407   4.870   4.935  2.2471 -0.7709  1.0302
21709SOL     OW66567   4.005   0.989   2.553 -0.6466 -0.0377  0.1019
21709SOL    HW166568   4.084   1.010   2.503 -0.9102  0.5115 -0.0939
21709SOL    HW266569   3.971   1.074   2.580 -0.1798 -0.3453  1.7538
21710SOL     OW66570   6.650   1.147   3.469  0.1738 -0.2025 -0.2987
21710SOL    HW166571   6.565   1.140   3.426  0.4727 -0.2253 -0.8942
21710SOL    HW266572   6.693   1.221   3.426  0.0641  0.4588  0.6946
21711SOL     OW66573   0.448   4.583   0.366  0.4514  0.4536  0.0526
21711SOL    HW166574   0.503   4.522   0.317  1.3292  0.3015  1.1892
21711SOL    HW266575   0.425   4.536   0.447  1.1774  1.6117  0.9751
21712SOL     OW66576   6.313   3.053   3.209  0.0911 -0.2277  0.1527
21712SOL    HW166577   6.359   3.123   3.255  0.3074 -0.6095  0.5174
21712SOL    HW266578   6.290   2.990   3.277  0.3359 -0.7561 -0.2418
21713SOL     OW66579   6.669   3.467   5.982  0.5145 -0.0414  0.1254
21713SOL    HW166580   6.708   3.421   5.907  0.3071 -0.2258  0.1304
21713SOL    HW266581   6.621   3.399   6.029 -0.5210  0.3480 -0.3480
21714SOL     OW66582   4.453   7.926   3.562  0.1446 -0.1850  0.1832
21714SOL    HW166583   4.404   7.871   3.623 -0.4812  0.4320  0.2446
21714SOL    HW266584   4.545   7.914   3.589 -0.0791 -0.3163  0.9247
21715SOL     OW66585   7.740   3.271   7.625 -0.0077  0.0587 -0.1989
21715SOL    HW166586   7.678   3.254   7.555  0.6904  1.0774 -1.1054
21715SOL    HW266587   7.821   3.297   7.580  0.2653  1.4023  0.9782
21716SOL     OW66588   5.471   6.583  11.012  0.0709  0.0190 -0.4382
21716SOL    HW166589   5.481   6.620  10.924  0.1142  1.1598  0.0299
21716SOL    HW266590   5.523   6.640  11.068 -2.8002  1.5247  0.9050
21717SOL     OW66591   4.213   1.486   1.148  0.1361  0.0865 -0.0097
21717SOL    HW166592   4.213   1.401   1.105  1.2399 -0.4583  1.0302
21717SOL    HW266593   4.198   1.467   1.240  1.1052  0.9526  0.3386
21718SOL     OW66594   0.050   6.506   2.767  0.1695 -0.3184 -0.0415
21718SOL    HW166595   0.067   6.528   2.676 -2.0603 -0.1985 -0.4782
21718SOL    HW266596   0.030   6.413   2.767 -1.8640  0.0757 -0.0492
21719SOL     OW66597   6.684   4.665   1.826 -0.2488 -0.2465  0.2084
21719SOL    HW166598   6.692   4.593   1.888 -1.3500 -0.5201  0.0660
21719SOL    HW266599   6.590   4.672   1.810 -0.0706  0.5282 -0.5951
21720SOL     OW66600   0.139   3.491   9.067 -0.0487  0.0263  0.4259
21720SOL    HW166601   0.117   3.399   9.055  0.3939  0.0044 -0.2892
21720SOL    HW266602   0.083   3.538   9.006  2.1956 -0.0842 -1.8843
21721SOL     OW66603   7.266   0.290  10.741 -0.2581  0.3180 -0.2174
21721SOL    HW166604   7.328   0.341  10.688 -0.4598  1.3091  0.4662
21721SOL    HW266605   7.292   0.199  10.728  1.9497  0.7563  0.7887
21722SOL     OW66606   7.630   3.396   7.248  0.1116  0.1368 -0.8644
21722SOL    HW166607   7.700   3.376   7.186  2.5747 -0.0206  1.7944
21722SOL    HW266608   7.615   3.313   7.294 -0.7590  0.5535 -0.3826
21723SOL     OW66609   0.662   4.099   8.332 -0.2741  0.4953  0.7308
21723SOL    HW166610   0.622   4.179   8.366 -1.2044  0.6681 -0.6705
21723SOL    HW266611   0.731   4.129   8.274 -1.6238  0.3716 -1.0069
21724SOL     OW66612   6.086   3.378  12.439  0.5543 -0.3985 -0.1456
21724SOL    HW166613   6.038   3.308  12.393  0.2656 -0.2697 -0.0404
21724SOL    HW266614   6.060   3.368  12.530 -1.0467  1.0789 -0.3869
21725SOL     OW66615   1.228   6.400   2.174  0.3416 -0.4002 -0.1321
21725SOL    HW166616   1.274   6.356   2.246 -0.8058 -0.2943  0.6920
21725SOL    HW266617   1.257   6.354   2.095  0.5326 -1.4655  0.5400
21726SOL     OW66618   0.884   5.805   6.627  0.1943 -0.0308  0.2904
21726SOL    HW166619   0.912   5.730   6.575  1.3319  1.1790 -0.8983
21726SOL    HW266620   0.951   5.812   6.696  0.4332  0.2633  0.0288
21727SOL     OW66621   7.207   7.577   3.477 -0.5474  0.0005 -0.2086
21727SOL    HW166622   7.193   7.592   3.383 -1.7533  1.8064  0.1966
21727SOL    HW266623   7.121   7.553   3.510  0.1467 -2.0545  0.2575
21728SOL     OW66624   7.686   4.490   4.746  0.0252 -0.0100 -0.2354
21728SOL    HW166625   7.600   4.513   4.780 -0.1576  0.8558 -1.2420
21728SOL    HW266626   7.741   4.566   4.766  0.2185 -0.0026 -0.7929
21729SOL     OW66627   7.191   7.282   6.451 -0.5246 -0.2882 -0.0778
21729SOL    HW166628   7.269   7.230   6.466  0.0427  0.8370  1.0750
21729SOL    HW266629   7.210   7.334   6.373  0.3197  0.7215  0.7693
21730SOL     OW66630   4.116   4.351  10.616 -0.5280 -0.0040 -0.4560
21730SOL    HW166631   4.072   4.326  10.535 -1.3554  0.6203 -0.2251
21730SOL    HW266632   4.209   4.352  10.594 -0.3714 -3.4532 -0.3958
21731SOL     OW66633   2.918   6.642  11.364  0.0758 -0.3073 -0.2318
21731SOL    HW166634   2.858   6.713  11.387  0.5711 -0.1980  0.8103
21731SOL    HW266635   2.982   6.641  11.436 -0.5891 -2.5829  0.4292
21732SOL     OW66636   0.425   0.841   3.023  0.7336 -0.3543  0.2515
21732SOL    HW166637   0.401   0.929   3.049  2.4189 -0.0436  0.8923
21732SOL    HW266638   0.459   0.800   3.103 -2.0069 -2.3877  0.5422
21733SOL     OW66639   0.380   3.988  11.110  0.4508  0.3726 -0.5318
21733SOL    HW166640   0.357   3.923  11.043 -0.4176 -0.3391  0.4261
21733SOL    HW266641   0.369   4.072  11.066  1.6881 -0.0949 -1.8295
21734SOL     OW66642   1.341   5.843  10.050  0.4827  0.0914 -0.0481
21734SOL    HW166643   1.249   5.849  10.025  0.4693  1.0849  0.1697
21734SOL    HW266644   1.376   5.771   9.998 -0.8646 -1.6061  1.2822
21735SOL     OW66645   5.865   2.944   7.496 -0.5062  0.4498  0.3887
21735SOL    HW166646   5.924   2.881   7.455 -1.4991 -1.2557  1.5024
21735SOL    HW266647   5.777   2.909   7.480 -1.0365  1.0775  1.7767
21736SOL     OW66648   4.637   0.560  10.341 -0.4974  0.8304  0.0019
21736SOL    HW166649   4.725   0.525  10.356 -0.8375 -0.3000 -0.5650
21736SOL    HW266650   4.615   0.605  10.423  0.3874  0.6718  0.3406
21737SOL     OW66651   3.704   2.091   6.953 -0.0169  0.0551  0.0296
21737SOL    HW166652   3.621   2.043   6.949  0.7287 -1.2739  0.1812
21737SOL    HW266653   3.722   2.101   7.046  1.1383 -1.7247  0.0288
21738SOL     OW66654   6.569   0.661   6.400  0.4715 -0.1460  0.1980
21738SOL    HW166655   6.663   0.650   6.390  0.4618 -0.0598 -0.0094
21738SOL    HW266656   6.549   0.627   6.487  0.7828  0.3946  0.4798
21739SOL     OW66657   6.275   0.716   8.621 -0.2330  0.1003  0.0036
21739SOL    HW166658   6.306   0.736   8.709 -1.6829 -2.3718  1.1644
21739SOL    HW266659   6.285   0.621   8.612 -2.6862 -0.1094 -1.4077
21740SOL     OW66660   7.727   2.172   6.095  0.2079 -0.4773 -0.0807
21740SOL    HW166661   7.783   2.114   6.147  1.4908 -0.2411 -1.1211
21740SOL    HW266662   7.743   2.145   6.004  0.3430  1.0478 -0.5416
21741SOL     OW66663   1.303   2.961  10.084  0.0366  0.4277  0.3624
21741SOL    HW166664   1.315   3.056  10.090  0.3424  0.3863  0.4600
21741SOL    HW266665   1.312   2.942   9.991 -1.5211  0.6768  0.1364
21742SOL     OW66666   3.248   5.862  10.962 -0.2820 -0.0714 -0.2684
21742SOL    HW166667   3.294   5.781  10.940 -0.6474 -0.1233 -0.8450
21742SOL    HW266668   3.312   5.911  11.014 -0.2885 -1.0070  0.6659
21743SOL     OW66669   1.944   2.368   6.015  0.0410  0.0508  0.0465
21743SOL    HW166670   1.942   2.420   5.935 -1.2871  0.2715  0.2086
21743SOL    HW266671   2.037   2.347   6.028  0.0802 -3.7671 -3.9744
21744SOL     OW66672   5.102   4.689   0.443 -0.0926 -0.2028 -0.4545
21744SOL    HW166673   5.159   4.764   0.426  0.0782 -0.1447  0.3391
21744SOL    HW266674   5.144   4.643   0.516 -0.8706 -0.3616 -0.1008
21745SOL     OW66675   0.922   2.508   9.659  0.0065  0.5466  0.4174
21745SOL    HW166676   0.860   2.547   9.597 -1.1456  0.9691  1.7960
21745SOL    HW266677   1.008   2.539   9.630 -0.6457  1.8907 -0.1235
21746SOL     OW66678   1.639   4.294  11.673  0.4108 -0.0470 -0.0998
21746SOL    HW166679   1.629   4.206  11.637  0.2640 -0.6338  1.3028
21746SOL    HW266680   1.728   4.296  11.707  0.0351 -0.0942  0.9415
21747SOL     OW66681   1.424   1.183   3.479 -0.1055  0.1110 -0.6104
21747SOL    HW166682   1.455   1.102   3.440  2.7984 -0.2280  2.0241
21747SOL    HW266683   1.395   1.236   3.404 -0.8974 -2.7805 -2.5111
21748SOL     OW66684   5.179   4.753   9.489  0.2229 -0.2351  0.0309
21748SOL    HW166685   5.130   4.709   9.559 -0.1601 -1.3962 -0.9318
21748SOL    HW266686   5.172   4.694   9.414  3.7748 -0.8466  0.0187
21749SOL     OW66687   6.910   2.829   7.664  0.2173  0.4232 -0.3589
21749SOL    HW166688   6.837   2.855   7.607 -0.3217 -1.1276 -0.4402
21749SOL    HW266689   6.871   2.764   7.723  1.8422 -1.6299 -1.4134
21750SOL     OW66690   4.931   1.222   9.922 -0.1513  0.4834  0.0053
21750SOL    HW166691   4.944   1.165   9.999 -0.4248  0.6882  0.2024
21750SOL    HW266692   4.837   1.220   9.906 -0.3654  1.9871  0.8733
21751SOL     OW66693   1.178   1.763   2.355  0.4377  0.4315  0.9490
21751SOL    HW166694   1.191   1.748   2.261  1.5175 -0.9285  1.2961
21751SOL    HW266695   1.252   1.817   2.381  0.9286 -0.3924  1.2914
21752SOL     OW66696   7.220   1.152   4.452 -0.3567 -0.9142  0.2981
21752SOL    HW166697   7.157   1.212   4.412 -0.6387 -0.9501  0.6763
21752SOL    HW266698   7.180   1.128   4.536  0.1867 -0.8924  0.5706
21753SOL     OW66699   4.836   3.447   1.970 -0.2479  0.1348  0.1464
21753SOL    HW166700   4.814   3.374   2.028  1.2243 -0.9875 -0.6428
21753SOL    HW266701   4.755   3.497   1.963 -1.2979 -1.4133  0.7080
21754SOL     OW66702   0.389   0.909   0.676  0.5680 -0.5715 -0.3099
21754SOL    HW166703   0.387   0.831   0.621 -0.9297 -0.0776 -1.0158
21754SOL    HW266704   0.469   0.955   0.650  0.2366 -0.6938 -1.6169
21755SOL     OW66705   3.483   3.383   7.099 -0.3110 -0.4516 -0.3209
21755SOL    HW166706   3.569   3.354   7.069  0.5517  0.7089  0.8846
21755SOL    HW266707   3.421   3.338   7.042  1.0450 -2.1144 -0.5591
21756SOL     OW66708   2.034   7.722   0.723 -0.1455  0.2178  0.2789
21756SOL    HW166709   2.116   7.713   0.771  0.0200  0.8265  0.1145
21756SOL    HW266710   2.054   7.690   0.635  0.9302  3.5807 -0.8285
21757SOL     OW66711   4.365   5.975   5.419  0.2848  0.2869 -0.1248
21757SOL    HW166712   4.377   5.947   5.329  0.0303  1.6423 -0.5999
21757SOL    HW266713   4.295   6.040   5.415 -0.1172 -0.0322  1.1338
21758SOL     OW66714   4.501   7.529   8.690  0.6515  0.5549  0.4755
21758SOL    HW166715   4.585   7.511   8.649 -0.2967  1.0817 -1.8503
21758SOL    HW266716   4.439   7.472   8.645 -0.6597  2.0635  0.2871
21759SOL     OW66717   0.963   6.279   6.021 -0.1680  0.5042 -0.3926
21759SOL    HW166718   0.893   6.269   5.956  0.4826  0.6513 -1.1397
21759SOL    HW266719   0.970   6.374   6.033  0.6285  0.5521 -1.1502
21760SOL     OW66720   1.213   6.109   6.520 -0.0271 -0.1802  0.0549
21760SOL    HW166721   1.210   6.059   6.601 -0.1000 -1.3602 -0.6421
21760SOL    HW266722   1.132   6.159   6.520 -1.6648 -2.6450 -0.7544
21761SOL     OW66723   5.514   2.382   2.196  0.3575  0.0196  0.5723
21761SOL    HW166724   5.585   2.446   2.190  0.3876  0.2016  2.2436
21761SOL    HW266725   5.460   2.414   2.268  0.0856 -1.5582  1.1102
21762SOL     OW66726   6.495   3.105   3.587 -0.6544 -0.1743  0.1380
21762SOL    HW166727   6.561   3.036   3.575 -0.9029 -0.3284 -0.3468
21762SOL    HW266728   6.531   3.160   3.656  1.6680  1.7222 -2.3370
21763SOL     OW66729   1.239   6.217  12.141 -0.1169  0.4951 -0.2655
21763SOL    HW166730   1.153   6.256  12.127 -1.1810 -1.5395  0.2520
21763SOL    HW266731   1.293   6.289  12.175 -2.2087  1.3225  1.5329
21764SOL     OW66732   6.106   4.241   6.808  0.0180  0.0914 -0.1751
21764SOL    HW166733   6.014   4.261   6.795 -0.1564 -0.2780  0.4467
21764SOL    HW266734   6.124   4.168   6.748  0.1039  0.6521 -0.8449
21765SOL     OW66735   1.934   3.980   5.758  0.4910  0.2828  0.0226
21765SOL    HW166736   1.980   3.897   5.764 -0.1939 -0.0493  1.1348
21765SOL    HW266737   1.956   4.014   5.672  1.0890 -0.8661 -0.2990
21766SOL     OW66738   3.285   5.722  11.565 -0.8223 -0.3369 -0.1372
21766SOL    HW166739   3.351   5.670  11.611 -0.1371  0.1779 -0.5215
21766SOL    HW266740   3.334   5.795  11.527 -1.5510 -0.1663 -0.7728
21767SOL     OW66741   6.780   5.373   1.510  0.1947 -0.4287 -0.1074
21767SOL    HW166742   6.837   5.346   1.582 -1.1062 -0.2218  1.0549
21767SOL    HW266743   6.703   5.317   1.519 -0.5873  0.5558 -0.4604
21768SOL     OW66744   6.343   0.994   6.337  0.2539  0.5944 -0.1946
21768SOL    HW166745   6.298   1.003   6.253  0.4409  0.7988 -0.2722
21768SOL    HW266746   6.282   1.032   6.401  0.4184  1.0990 -0.3325
21769SOL     OW66747   7.835   5.633   0.329 -0.7066 -0.3375 -0.1673
21769SOL    HW166748   7.791   5.627   0.413 -2.2708  1.3550 -0.7744
21769SOL    HW266749   7.801   5.560   0.278 -0.7216 -0.6290  0.2624
21770SOL     OW66750   0.742   4.063  11.599 -0.2082 -0.0592 -0.4864
21770SOL    HW166751   0.755   4.119  11.522 -0.3171 -0.3580 -0.7288
21770SOL    HW266752   0.734   3.974  11.562  1.7984 -0.4886  0.0246
21771SOL     OW66753   0.239   3.891   2.825  0.7304 -0.0665  0.2027
21771SOL    HW166754   0.212   3.852   2.742  1.4410 -0.6797  0.2441
21771SOL    HW266755   0.248   3.985   2.806  2.1399 -0.3645 -0.7809
21772SOL     OW66756   2.988   1.340   8.558 -0.2912 -0.0784  0.4237
21772SOL    HW166757   3.044   1.280   8.510  0.0464  1.7295 -1.6340
21772SOL    HW266758   3.035   1.358   8.639 -0.0546 -1.9389  0.7371
21773SOL     OW66759   7.342   7.353   6.222  0.0092 -0.1794 -0.3183
21773SOL    HW166760   7.426   7.346   6.268 -1.3237 -0.1684  2.3152
21773SOL    HW266761   7.360   7.412   6.148  1.8257  1.7857  1.5336
21774SOL     OW66762   3.270   2.085   7.322  0.1847  0.0391  0.5490
21774SOL    HW166763   3.349   2.059   7.274 -0.2086  0.1642 -0.1872
21774SOL    HW266764   3.203   2.096   7.254 -0.7275 -0.9774  1.2411
21775SOL     OW66765   4.839   3.793  11.666  0.0437 -0.3564  0.4939
21775SOL    HW166766   4.850   3.886  11.650 -2.0293 -0.3485 -1.2606
21775SOL    HW266767   4.927   3.762  11.687  1.7561  1.1699 -3.4661
21776SOL     OW66768   1.155   1.967   8.951 -0.2252  0.1969 -0.3299
21776SOL    HW166769   1.240   1.987   8.989 -1.3039  2.7056  0.9990
21776SOL    HW266770   1.169   1.886   8.901  3.2714  1.3246 -1.4449
21777SOL     OW66771   4.095   5.964   9.448  0.6425  0.3988 -0.0554
21777SOL    HW166772   4.133   5.892   9.499  1.1463  0.9681  0.3867
21777SOL    HW266773   4.071   6.030   9.513 -1.2224  0.0270 -0.3123
21778SOL     OW66774   7.602   6.176   7.331 -0.9907 -0.3777  0.1593
21778SOL    HW166775   7.574   6.194   7.421 -0.9809  2.3149 -0.2967
21778SOL    HW266776   7.691   6.210   7.326 -1.7892  1.6460 -1.4305
21779SOL     OW66777   6.306   7.528   3.407 -0.0943 -0.1879  0.3332
21779SOL    HW166778   6.339   7.582   3.335 -0.1460 -0.0614  0.4048
21779SOL    HW266779   6.307   7.586   3.483  3.0737 -1.1792  1.2019
21780SOL     OW66780   5.923   3.622   2.465 -0.0450  0.6954 -0.0755
21780SOL    HW166781   5.865   3.546   2.475  0.5820  0.0377 -1.2257
21780SOL    HW266782   5.874   3.695   2.503 -1.0496 -0.1053  0.2067
21781SOL     OW66783   1.766   3.753   4.128  0.4562 -0.2325 -0.0234
21781SOL    HW166784   1.724   3.714   4.051 -0.6306 -0.8745  0.8720
21781SOL    HW266785   1.709   3.825   4.153  2.0982  1.6041 -1.2580
21782SOL     OW66786   0.497   3.637   8.543 -0.3727 -0.1038  0.2430
21782SOL    HW166787   0.524   3.727   8.529 -0.8159  0.2136  1.3397
21782SOL    HW266788   0.533   3.614   8.629 -0.7829 -0.7544  0.2495
21783SOL     OW66789   7.505   4.681  11.907 -0.3600 -0.1702  0.2073
21783SOL    HW166790   7.498   4.748  11.976 -1.0081 -1.1218  1.0972
21783SOL    HW266791   7.567   4.618  11.943  0.9224  0.3612 -1.0020
21784SOL     OW66792   4.025   2.976   5.132  0.3460  0.5144  0.2669
21784SOL    HW166793   4.057   3.018   5.052 -0.7490  0.2874 -0.3029
21784SOL    HW266794   3.947   2.929   5.105  1.6686 -2.1864  0.7887
21785SOL     OW66795   7.415   4.482   3.814 -0.5739  0.3442 -0.2348
21785SOL    HW166796   7.426   4.550   3.881  0.4692 -0.7787  0.7677
21785SOL    HW266797   7.325   4.452   3.824 -0.5879  0.5617  0.3022
21786SOL     OW66798   3.081   6.489   4.843 -0.0481 -0.3099  0.0674
21786SOL    HW166799   2.986   6.489   4.827 -0.1661 -0.7726  0.7293
21786SOL    HW266800   3.104   6.397   4.849  0.5287 -0.2081 -0.5258
21787SOL     OW66801   4.832   3.961   9.262  0.1445  0.3735  0.2305
21787SOL    HW166802   4.754   3.988   9.212  1.0115  0.7345 -0.9824
21787SOL    HW266803   4.895   3.936   9.195  0.1069 -2.8206  1.2402
21788SOL     OW66804   5.545   6.036   8.892 -0.5920  0.1928  0.5111
21788SOL    HW166805   5.612   6.008   8.955  0.7823 -0.4798 -1.1844
21788SOL    HW266806   5.576   6.121   8.860 -0.8807  0.1809  0.1937
21789SOL     OW66807   0.178   5.890   2.903  0.6037  0.1113 -0.0784
21789SOL    HW166808   0.217   5.878   2.817 -2.1584 -0.7723 -1.3246
21789SOL    HW266809   0.107   5.826   2.906  0.1045  0.6836  2.5566
21790SOL     OW66810   6.544   7.689   5.912  0.3511  1.1347  0.1172
21790SOL    HW166811   6.594   7.770   5.903  1.6419  0.1260 -3.4035
21790SOL    HW266812   6.454   7.714   5.889  0.7630  1.5917 -1.0576
21791SOL     OW66813   3.407   5.939   9.082 -0.1620 -0.4822  0.0748
21791SOL    HW166814   3.322   5.967   9.117  0.9236  1.0568  1.6460
21791SOL    HW266815   3.408   5.844   9.095 -2.4361 -0.8789 -1.9411
21792SOL     OW66816   7.289   0.602   3.430  0.3085 -0.2991  0.2553
21792SOL    HW166817   7.253   0.516   3.409  1.2962 -0.7758  0.4586
21792SOL    HW266818   7.237   0.632   3.505 -0.9413 -0.1006 -0.6633
21793SOL     OW66819   4.842   4.031   0.832  0.3597  0.5170  0.0284
21793SOL    HW166820   4.906   4.100   0.849  1.7875 -0.9308  0.8358
21793SOL    HW266821   4.837   4.025   0.737  2.1916  0.0386 -0.0714
21794SOL     OW66822   6.013   0.333   0.487  0.1623  0.1809 -0.6988
21794SOL    HW166823   6.039   0.424   0.471 -0.8785  0.7969  0.8322
21794SOL    HW266824   6.095   0.287   0.505  0.7161  0.7723 -1.6228
21795SOL     OW66825   1.494   2.376  11.742  0.3091  0.1370 -0.0958
21795SOL    HW166826   1.572   2.420  11.708  0.2574 -0.3755 -0.8883
21795SOL    HW266827   1.479   2.303  11.682 -0.0644 -0.5049  0.7526
21796SOL     OW66828   5.070   6.993  11.423 -0.4016  0.0912  0.1502
21796SOL    HW166829   5.084   6.945  11.504 -1.1077 -0.5610 -0.1011
21796SOL    HW266830   4.977   7.018  11.425 -0.3144  0.4596 -0.2401
21797SOL     OW66831   4.617   5.374   1.737  0.4483 -0.0696 -0.5874
21797SOL    HW166832   4.537   5.357   1.787 -0.4352 -1.2230 -2.3021
21797SOL    HW266833   4.622   5.302   1.674  2.3927  0.4444 -1.0905
21798SOL     OW66834   5.458   2.198   8.381  0.0690 -0.6148  0.7645
21798SOL    HW166835   5.415   2.261   8.439  0.5826  1.4658 -0.9940
21798SOL    HW266836   5.409   2.117   8.394 -1.1912  0.3477  2.4670
21799SOL     OW66837   4.382   3.407   6.158  0.5389  0.4948 -0.4055
21799SOL    HW166838   4.368   3.466   6.232 -1.0773 -0.0436 -0.2453
21799SOL    HW266839   4.325   3.441   6.089  0.1590 -0.4350 -0.5616
21800SOL     OW66840   4.221   7.858   7.124  0.5049  0.0962  0.1400
21800SOL    HW166841   4.310   7.871   7.155  0.2290  0.0667  0.9697
21800SOL    HW266842   4.185   7.946   7.114  0.6868  0.1142 -0.3946
21801SOL     OW66843   3.468   4.241   7.921  0.0526 -0.5842 -0.0696
21801SOL    HW166844   3.418   4.294   7.858 -0.2703 -0.3916  0.3458
21801SOL    HW266845   3.441   4.151   7.904 -0.4306 -0.4805  0.1483
21802SOL     OW66846   0.638   2.949   3.962 -0.5499 -0.4704  0.2025
21802SOL    HW166847   0.552   2.925   3.997  0.0097 -0.4275  1.6840
21802SOL    HW266848   0.701   2.909   4.022  0.4529  0.5712 -0.1000
21803SOL     OW66849   6.239   2.831   0.145 -0.1395  0.4883  0.6899
21803SOL    HW166850   6.198   2.762   0.198  2.6469 -0.8860  1.2216
21803SOL    HW266851   6.253   2.903   0.205  1.8215 -0.5769  1.5853
21804SOL     OW66852   7.749   5.409   1.116 -0.3858 -0.7265 -0.2751
21804SOL    HW166853   7.733   5.467   1.042  0.6465  1.3106  0.9989
21804SOL    HW266854   7.689   5.439   1.184  0.1550 -1.1421  0.4077
21805SOL     OW66855   7.775   3.843   4.061 -0.2680  0.3463  0.0533
21805SOL    HW166856   7.727   3.803   4.134  0.2372 -0.1773  0.1082
21805SOL    HW266857   7.729   3.925   4.044  0.1560  0.9387  1.5765
21806SOL     OW66858   0.069   1.805   0.120  0.2232  0.5069 -0.5070
21806SOL    HW166859   0.040   1.740   0.184 -1.2094  1.0987 -0.5209
21806SOL    HW266860   0.160   1.781   0.101 -0.2370 -1.4549 -0.4548
21807SOL     OW66861   1.033   4.383  11.814 -0.2208 -0.1241 -0.1159
21807SOL    HW166862   1.013   4.293  11.788 -1.7329 -0.7272  2.7412
21807SOL    HW266863   0.974   4.437  11.762 -1.2689 -1.0386  0.0736
21808SOL     OW66864   6.285   1.605   1.363 -0.3334 -0.3293  0.1112
21808SOL    HW166865   6.283   1.701   1.353  0.5871 -0.3290 -0.1291
21808SOL    HW266866   6.290   1.572   1.273 -0.8348 -0.6186  0.1835
21809SOL     OW66867   6.750   7.788   2.174  0.6613 -0.1437 -0.3822
21809SOL    HW166868   6.732   7.719   2.110  0.1044 -0.9575  0.6275
21809SOL    HW266869   6.704   7.865   2.140  0.5660 -0.4968 -1.0753
21810SOL     OW66870   3.054   6.195   0.095 -0.1835 -0.3746  0.7231
21810SOL    HW166871   3.018   6.111   0.068 -0.8507 -0.9890  3.2338
21810SOL    HW266872   2.993   6.227   0.162  0.0170  2.1632 -0.2036
21811SOL     OW66873   2.966   6.029   5.388  0.1269 -0.8312  0.0008
21811SOL    HW166874   2.879   6.068   5.394  0.0057 -1.0224 -0.5043
21811SOL    HW266875   3.009   6.055   5.470  1.1736  3.0793 -1.5560
21812SOL     OW66876   4.894   0.893   7.537 -0.3296  0.7110 -0.0123
21812SOL    HW166877   4.810   0.903   7.493 -0.4600 -0.4802 -0.0554
21812SOL    HW266878   4.876   0.837   7.612  0.4652  0.2135 -0.1744
21813SOL     OW66879   3.345   1.033   5.302 -0.2760 -0.3056  0.3872
21813SOL    HW166880   3.349   0.974   5.378  0.9859  1.0204  1.4090
21813SOL    HW266881   3.300   1.111   5.335  0.2338  0.2609 -0.2422
21814SOL     OW66882   7.260   2.771   3.354 -0.3985 -0.2282 -0.2068
21814SOL    HW166883   7.261   2.693   3.300  1.2541 -0.0550 -0.4847
21814SOL    HW266884   7.348   2.776   3.391 -0.9429  0.6454  1.0705
21815SOL     OW66885   3.384   5.083   0.867  0.3311  1.1136 -0.6846
21815SOL    HW166886   3.294   5.113   0.882  0.3014  0.3355  0.8303
21815SOL    HW266887   3.437   5.135   0.928  0.6605  0.2119 -0.1911
21816SOL     OW66888   6.808   2.922   6.872 -0.0009 -0.0422  0.1705
21816SOL    HW166889   6.807   3.008   6.830 -1.3326 -0.6088 -1.0778
21816SOL    HW266890   6.883   2.924   6.931 -0.6534  2.3600  1.0168
21817SOL     OW66891   6.229   1.676   0.141  0.2284  0.6106  0.1764
21817SOL    HW166892   6.190   1.589   0.146  0.0068  0.7407  0.8166
21817SOL    HW266893   6.216   1.703   0.050  1.0421 -0.3598 -0.2522
21818SOL     OW66894   6.745   4.352   7.762 -0.2302 -0.2224  0.0998
21818SOL    HW166895   6.781   4.399   7.838  0.0834 -0.2226 -0.0465
21818SOL    HW266896   6.815   4.356   7.696  0.3550 -2.0700  0.5487
21819SOL     OW66897   3.660   0.297   1.752  0.9506 -0.5980  0.1427
21819SOL    HW166898   3.666   0.347   1.834  1.9628 -0.3504 -0.0664
21819SOL    HW266899   3.650   0.206   1.780  1.7201 -0.5641  0.5471
21820SOL     OW66900   2.021   6.796   1.717  0.0813 -0.1147  0.2874
21820SOL    HW166901   1.959   6.727   1.741 -1.2353  0.3999 -1.4515
21820SOL    HW266902   2.049   6.833   1.801  0.4924 -2.4511  1.2335
21821SOL     OW66903   0.119   1.287   4.133  0.2927 -0.3067 -0.0959
21821SOL    HW166904   0.087   1.344   4.064  0.2956 -0.1587  0.0244
21821SOL    HW266905   0.039   1.258   4.178  0.2920 -0.3875 -0.1487
21822SOL     OW66906   1.710   4.188  11.037  0.3887  0.4105  0.1461
21822SOL    HW166907   1.792   4.233  11.054 -0.7948  2.2274  1.4412
21822SOL    HW266908   1.704   4.184  10.941  2.6718 -1.2210  0.0097
21823SOL     OW66909   3.106   3.564   5.117  0.6333  0.2956  0.1016
21823SOL    HW166910   3.085   3.554   5.024  0.1096 -0.1283  0.2582
21823SOL    HW266911   3.200   3.553   5.122  1.0020  2.5639 -0.6775
21824SOL     OW66912   2.952   3.252   4.347 -0.1256 -0.1425 -0.2492
21824SOL    HW166913   2.935   3.219   4.436  0.1926  1.4682  0.4475
21824SOL    HW266914   2.967   3.346   4.359  1.9292 -0.2153 -1.7532
21825SOL     OW66915   2.549   0.969   1.506 -0.0367 -0.1864 -0.2835
21825SOL    HW166916   2.504   0.928   1.432  0.3308 -1.8770  0.3934
21825SOL    HW266917   2.575   1.055   1.474 -0.1869 -0.7587 -2.0059
21826SOL     OW66918   3.396   6.417   5.258  0.1571  0.0574 -0.1689
21826SOL    HW166919   3.340   6.492   5.239 -0.0949 -0.0691  0.0645
21826SOL    HW266920   3.457   6.448   5.325  0.5240  0.2649 -0.5949
21827SOL     OW66921   3.940   5.775   0.058  0.5299 -0.7013  0.1167
21827SOL    HW166922   3.917   5.710   0.124 -2.3106  0.0343 -0.0185
21827SOL    HW266923   4.007   5.828   0.100  0.7744 -1.9251  1.3483
21828SOL     OW66924   4.716   0.253  10.968  0.1309  0.1277  0.0941
21828SOL    HW166925   4.773   0.275  11.041 -0.0088 -1.7176  0.8038
21828SOL    HW266926   4.731   0.323  10.904  2.2403  0.3708  0.7787
21829SOL     OW66927   2.126   0.122   6.573 -0.1921  0.1488  0.0418
21829SOL    HW166928   2.169   0.137   6.657 -0.1669  0.0484  0.0473
21829SOL    HW266929   2.187   0.065   6.525 -0.1631  0.2830 -0.0807
21830SOL     OW66930   6.045   3.142   2.491 -0.1517 -0.1947  0.1789
21830SOL    HW166931   6.135   3.164   2.514  0.0626 -1.1894  0.2976
21830SOL    HW266932   6.050   3.107   2.403 -0.2499 -1.3688  0.6266
21831SOL     OW66933   6.693   1.170   8.030 -0.3584 -0.3625 -0.2161
21831SOL    HW166934   6.638   1.097   8.003  1.3378 -1.4413 -0.9549
21831SOL    HW266935   6.692   1.229   7.955  0.4312 -0.9840 -0.7412
21832SOL     OW66936   7.054   3.328   2.163 -0.0151  0.1320  0.0612
21832SOL    HW166937   7.068   3.353   2.071 -0.8111  0.8332  0.1190
21832SOL    HW266938   6.959   3.334   2.175  0.1163  0.3571  1.0222
21833SOL     OW66939   0.523   5.237   6.644  0.0854  0.3200  0.1536
21833SOL    HW166940   0.601   5.292   6.637 -0.2555  1.2983  2.9578
21833SOL    HW266941   0.558   5.150   6.664  0.5042  0.0462 -1.5601
21834SOL     OW66942   4.046   0.247   7.003 -0.0937 -0.0464 -0.0163
21834SOL    HW166943   4.090   0.222   7.085  0.1512 -0.8873 -0.3859
21834SOL    HW266944   3.955   0.221   7.016 -0.0943 -0.0018  0.0672
21835SOL     OW66945   6.983   7.359  11.681 -0.2235  0.2162 -0.1061
21835SOL    HW166946   6.941   7.363  11.766 -0.8331 -1.0186 -0.3354
21835SOL    HW266947   6.913   7.381  11.618  0.0041  0.2565 -0.3493
21836SOL     OW66948   2.821   2.651   3.450  0.3629 -0.4120  0.4012
21836SOL    HW166949   2.899   2.597   3.436 -0.8011 -1.6645 -1.7537
21836SOL    HW266950   2.829   2.722   3.386 -0.0171 -0.2404  0.5412
21837SOL     OW66951   1.014   6.626   9.334 -0.1996  0.3894 -0.2484
21837SOL    HW166952   1.094   6.670   9.362  0.5622 -0.4710 -1.0254
21837SOL    HW266953   0.946   6.661   9.392  1.3014 -1.4471  2.9013
21838SOL     OW66954   7.464   1.960   6.809 -0.7804  0.0332  0.1676
21838SOL    HW166955   7.439   1.893   6.872 -0.1028  0.7189  1.2071
21838SOL    HW266956   7.381   1.997   6.779 -1.1278 -0.6785  0.2295
21839SOL     OW66957   7.613   6.842   4.054 -0.0518 -0.4865  0.0269
21839SOL    HW166958   7.656   6.893   4.124 -2.2406 -1.0143  1.8652
21839SOL    HW266959   7.575   6.908   3.996  0.4410 -0.0478  0.1954
21840SOL     OW66960   1.465   2.376   5.649 -0.2604  0.0640 -0.2595
21840SOL    HW166961   1.472   2.374   5.554 -0.0839  3.2870 -0.4117
21840SOL    HW266962   1.555   2.367   5.681 -0.1634  0.2754 -0.4714
21841SOL     OW66963   5.194   3.535  11.530 -0.4412 -0.0236  0.0566
21841SOL    HW166964   5.210   3.451  11.572 -1.0976 -0.0740  0.2117
21841SOL    HW266965   5.266   3.591  11.561 -1.3237  0.1792  1.9045
21842SOL     OW66966   6.721   2.623  10.881  0.3427  0.5068 -0.4772
21842SOL    HW166967   6.788   2.557  10.901  0.5578 -0.1618 -3.0395
21842SOL    HW266968   6.638   2.577  10.894  0.4896 -0.6592 -3.0103
21843SOL     OW66969   5.184   0.491   9.976  0.2460  0.8275 -0.1933
21843SOL    HW166970   5.160   0.474   9.885  2.4311 -2.3601 -0.3579
21843SOL    HW266971   5.133   0.427  10.026  1.8385 -0.0892  0.3269
21844SOL     OW66972   6.849   3.142   1.284 -0.1688  0.6174  0.4320
21844SOL    HW166973   6.856   3.230   1.320 -0.9027  0.8917 -0.0761
21844SOL    HW266974   6.927   3.096   1.317  0.4725  1.5852  0.3104
21845SOL     OW66975   2.713   5.081   8.039  0.4199  0.0377 -0.3211
21845SOL    HW166976   2.784   5.023   8.066  0.3892  1.0100  2.0981
21845SOL    HW266977   2.634   5.041   8.075 -0.0225 -0.0187 -1.3222
21846SOL     OW66978   4.690   4.386   5.455  0.5110  0.1753 -0.3373
21846SOL    HW166979   4.631   4.375   5.380 -0.4241  0.5679  0.3250
21846SOL    HW266980   4.655   4.461   5.503  2.5239  1.4996 -0.8185
21847SOL     OW66981   5.927   3.503   3.572  0.8476 -0.6267  0.0233
21847SOL    HW166982   6.021   3.489   3.558  1.2383 -0.4512  2.1794
21847SOL    HW266983   5.885   3.433   3.522  1.8907  0.9384 -3.3798
21848SOL     OW66984   6.046   2.839   8.377  0.3732  0.1495  0.0410
21848SOL    HW166985   6.022   2.769   8.317  2.8401  1.2368 -2.4452
21848SOL    HW266986   6.101   2.797   8.443  0.9696 -0.4353 -0.8170
21849SOL     OW66987   0.830   5.618  10.685 -0.9283 -0.1507  0.0229
21849SOL    HW166988   0.777   5.635  10.607  1.4624  0.2550 -1.6165
21849SOL    HW266989   0.840   5.523  10.687 -0.3272 -0.1142 -0.6851
21850SOL     OW66990   4.571   2.988  10.022  0.6192 -0.3325 -0.4323
21850SOL    HW166991   4.564   2.895  10.001  0.1965  0.1599 -2.6935
21850SOL    HW266992   4.507   3.001  10.092  0.8320 -1.7599  0.0639
21851SOL     OW66993   0.419   1.104   7.585  0.0428 -0.3466 -0.1161
21851SOL    HW166994   0.347   1.127   7.644  0.0383  1.2995 -0.7091
21851SOL    HW266995   0.463   1.187   7.567  1.2435 -1.1113 -0.8773
21852SOL     OW66996   0.977   3.068   7.765  0.2345  0.2237 -0.3186
21852SOL    HW166997   0.930   3.117   7.833  0.0669 -0.7660  0.2941
21852SOL    HW266998   1.044   3.019   7.812  0.0807 -0.5165 -0.8610
21853SOL     OW66999   1.026   4.216   5.334 -0.1257 -0.0455 -0.1611
21853SOL    HW167000   1.024   4.292   5.276  0.9655  1.3660  1.5594
21853SOL    HW267001   0.968   4.240   5.406  1.2732 -0.2630  1.0677
21854SOL     OW67002   7.163   6.148   8.105 -0.4084 -0.3191 -0.1687
21854SOL    HW167003   7.094   6.205   8.138  0.8487  0.0955  1.9415
21854SOL    HW267004   7.214   6.125   8.182  0.1631 -2.9346 -1.2148
21855SOL     OW67005   0.616   2.631   8.699 -0.4622 -0.0334 -0.4820
21855SOL    HW167006   0.568   2.713   8.692  1.3260  1.1263  0.1758
21855SOL    HW267007   0.679   2.633   8.628 -0.2023 -0.7146 -0.2827
21856SOL     OW67008   7.251   2.678   2.393 -0.2715  0.1166  0.0996
21856SOL    HW167009   7.238   2.630   2.475  1.4701  0.3317  0.5445
21856SOL    HW267010   7.313   2.748   2.415 -1.6650  1.7315 -0.8562
21857SOL     OW67011   0.739   3.272   2.575  0.3303 -0.0596  0.7156
21857SOL    HW167012   0.833   3.257   2.574  0.0717 -2.1737 -1.4481
21857SOL    HW267013   0.716   3.292   2.484 -1.4687 -1.1635  0.8624
21858SOL     OW67014   3.570   1.923   5.668  0.1802  0.0911 -0.2069
21858SOL    HW167015   3.559   2.005   5.715  0.8138  0.1395 -0.1411
21858SOL    HW267016   3.540   1.943   5.579  0.3289  0.3871 -0.1903
21859SOL     OW67017   5.547   0.780   1.384  0.4282 -0.0704  0.0381
21859SOL    HW167018   5.522   0.716   1.317  0.3524 -0.3519  0.3316
21859SOL    HW267019   5.527   0.865   1.345  0.4544 -0.2304 -0.3253
21860SOL     OW67020   1.386   2.058  10.177  0.2123 -0.0926 -0.6308
21860SOL    HW167021   1.411   2.150  10.183 -0.2822  0.0696 -0.9543
21860SOL    HW267022   1.468   2.009  10.187  0.1347  0.2480  2.8634
21861SOL     OW67023   4.469   4.862   1.696 -0.3107  0.4749  0.3565
21861SOL    HW167024   4.471   4.766   1.699 -1.3822  0.4086 -0.4462
21861SOL    HW267025   4.400   4.886   1.758 -0.8349  0.6586 -0.2864
21862SOL     OW67026   3.231   2.242  11.996  0.1741 -0.3552 -0.9249
21862SOL    HW167027   3.274   2.173  12.047 -0.0204 -1.3107 -2.0113
21862SOL    HW267028   3.165   2.196  11.945 -0.4514  0.7511 -1.1399
21863SOL     OW67029   3.165   0.962   5.126 -0.0301 -0.0448 -0.3522
21863SOL    HW167030   3.247   0.980   5.172  0.1534  1.6842 -1.2705
21863SOL    HW267031   3.102   0.940   5.195  1.5197 -3.0097  0.2760
21864SOL     OW67032   6.283   3.345   8.739 -0.1447 -0.7361 -0.5644
21864SOL    HW167033   6.190   3.331   8.718 -0.3523 -0.0772 -0.1020
21864SOL    HW267034   6.300   3.435   8.713  0.3559 -0.8370 -0.5926
21865SOL     OW67035   5.849   3.124   3.752  0.2827 -0.2933  0.1423
21865SOL    HW167036   5.831   3.031   3.743  1.3857 -0.5323  0.3506
21865SOL    HW267037   5.834   3.160   3.664  0.0012 -0.6889  0.0278
21866SOL     OW67038   3.342   0.589  10.264 -0.0285  0.0890  0.7236
21866SOL    HW167039   3.388   0.535  10.329  0.3563 -0.2425  0.1911
21866SOL    HW267040   3.301   0.658  10.315 -0.3846 -0.6088  1.4071
21867SOL     OW67041   4.848   0.057  11.603 -0.5477  0.0287 -0.2418
21867SOL    HW167042   4.820   0.100  11.522  0.8922  1.9392  0.2155
21867SOL    HW267043   4.941   0.039  11.589 -0.1978  0.6961  1.1036
21868SOL     OW67044   2.920   6.025  10.809 -0.2791  0.9140  0.2033
21868SOL    HW167045   2.904   5.943  10.855  0.9740  0.1350 -0.6630
21868SOL    HW267046   2.883   6.011  10.722 -0.0943  1.2646  0.0663
21869SOL     OW67047   4.741   4.165   6.951 -0.4088 -0.5250  0.0132
21869SOL    HW167048   4.746   4.139   7.044  2.9931  0.4399  0.2361
21869SOL    HW267049   4.760   4.084   6.903 -0.9438 -0.7620  0.1908
21870SOL     OW67050   6.991   3.446   5.428 -0.4801 -0.3632 -0.1823
21870SOL    HW167051   7.023   3.496   5.353 -0.9563 -0.5640 -0.5182
21870SOL    HW267052   6.897   3.435   5.413 -0.4523 -1.0364  0.0739
21871SOL     OW67053   7.766   3.807   1.340  0.1365  0.1154  0.0720
21871SOL    HW167054   7.694   3.869   1.347  2.6619  3.0941  2.2957
21871SOL    HW267055   7.806   3.825   1.255 -0.5447 -0.2140 -0.3290
21872SOL     OW67056   4.773   1.773   2.601 -0.0974  0.3139 -0.1486
21872SOL    HW167057   4.715   1.705   2.636  1.7095 -0.2273  2.0145
21872SOL    HW267058   4.772   1.842   2.668  1.0166  0.7037 -0.5086
21873SOL     OW67059   6.559   0.556   8.147 -0.5733 -1.4084 -0.1815
21873SOL    HW167060   6.468   0.564   8.177  0.1779  0.4206  1.9305
21873SOL    HW267061   6.606   0.520   8.222  0.7028 -0.7772 -0.6510
21874SOL     OW67062   6.113   2.491   7.499 -0.2114  0.2585 -0.1616
21874SOL    HW167063   6.078   2.569   7.456 -0.4276 -0.1481 -0.7369
21874SOL    HW267064   6.074   2.492   7.586 -0.4390  0.6399 -0.2642
21875SOL     OW67065   0.947   0.335   4.193  0.2500 -0.1548 -0.5724
21875SOL    HW167066   0.945   0.324   4.288 -0.0369 -0.2695 -0.5906
21875SOL    HW267067   1.019   0.396   4.177  0.8279 -0.7627 -0.3437
21876SOL     OW67068   0.953   5.765   2.374  0.4044  0.0442 -0.5652
21876SOL    HW167069   0.893   5.818   2.321  1.1857  3.0157  1.2315
21876SOL    HW267070   0.900   5.733   2.447  0.4109  0.3879 -0.4065
21877SOL     OW67071   6.770   1.517  10.660 -0.2497 -1.0347  0.7847
21877SOL    HW167072   6.731   1.580  10.599  0.0934 -1.4181  0.1590
21877SOL    HW267073   6.793   1.569  10.737 -1.4951 -0.7055  0.9510
21878SOL     OW67074   7.517   0.643  10.264  0.5094  0.5010  0.1414
21878SOL    HW167075   7.515   0.632  10.169 -1.0517  0.2382  0.1867
21878SOL    HW267076   7.609   0.659  10.284  1.0056 -0.3971 -1.2998
21879SOL     OW67077   0.809   5.364   3.240  0.5497  0.4962  0.3858
21879SOL    HW167078   0.834   5.426   3.171  2.1334 -2.1039 -1.5713
21879SOL    HW267079   0.715   5.377   3.251  0.6250  2.4002 -0.7597
21880SOL     OW67080   5.699   0.006   3.833 -0.1281  0.0278 -0.2580
21880SOL    HW167081   5.714  -0.089   3.831 -0.5981 -0.0328 -1.7150
21880SOL    HW267082   5.708   0.034   3.742 -0.1468  1.3743  0.1280
21881SOL     OW67083   4.862   7.935   6.128  0.0586  0.2973  0.0873
21881SOL    HW167084   4.932   7.887   6.083 -1.3981 -1.1669 -0.7570
21881SOL    HW267085   4.864   8.022   6.088  1.7667  0.4962  0.5219
21882SOL     OW67086   4.326   4.396   2.377 -0.1358  0.3615 -0.1322
21882SOL    HW167087   4.416   4.415   2.349 -1.0417  0.7018 -3.2154
21882SOL    HW267088   4.320   4.300   2.372  0.5788  0.1364  2.1692
21883SOL     OW67089   0.816   1.697   6.718 -0.0124  0.6526  0.4922
21883SOL    HW167090   0.776   1.628   6.664  1.4310  0.1262  0.0369
21883SOL    HW267091   0.762   1.701   6.796 -0.8082 -0.1885  0.0008
21884SOL     OW67092   2.341   7.502  11.247 -0.2559  0.2261  0.0825
21884SOL    HW167093   2.352   7.590  11.212  3.2906  0.7908  2.1547
21884SOL    HW267094   2.274   7.511  11.315  0.2417  1.3826  0.4332
21885SOL     OW67095   6.646   2.805  12.060 -0.5149 -0.1166  0.1453
21885SOL    HW167096   6.710   2.841  12.121  0.4492  0.5789 -1.2274
21885SOL    HW267097   6.634   2.714  12.090  0.8023 -0.1476  0.6843
21886SOL     OW67098   1.433   1.028   7.492  0.0745  0.5979 -0.1128
21886SOL    HW167099   1.481   1.038   7.574  0.8042 -0.5977 -0.3664
21886SOL    HW267100   1.343   1.053   7.513  0.2373  0.2350  1.0702
21887SOL     OW67101   6.477   0.757   2.317 -0.4690 -0.1171  0.0137
21887SOL    HW167102   6.430   0.674   2.312 -0.1084 -0.2498 -2.0449
21887SOL    HW267103   6.414   0.823   2.289  0.2303 -0.1670 -1.7626
21888SOL     OW67104   0.672   7.894   7.164  0.1301  0.1635 -0.0205
21888SOL    HW167105   0.705   7.943   7.089 -1.8486  0.0426 -1.0458
21888SOL    HW267106   0.703   7.804   7.149 -1.2507 -0.1380 -1.4315
21889SOL     OW67107   2.145   0.877   4.606 -0.3538  0.2611 -0.1741
21889SOL    HW167108   2.238   0.857   4.608 -0.2717  0.6227  1.4806
21889SOL    HW267109   2.102   0.793   4.590  0.1748 -0.4589  1.8700
21890SOL     OW67110   5.854   6.810   9.012 -0.4904  0.3442 -0.6147
21890SOL    HW167111   5.844   6.851   9.098  0.5805 -1.5445  0.4801
21890SOL    HW267112   5.924   6.860   8.970  1.6158 -0.9006  1.1463
21891SOL     OW67113   3.668   5.461   0.006  0.2529  0.4704  0.2142
21891SOL    HW167114   3.680   5.545  -0.037  1.5765 -0.3336 -1.0860
21891SOL    HW267115   3.574   5.443  -0.004  0.1704  1.2454 -0.5773
21892SOL     OW67116   1.132   0.442  11.826  0.0289 -0.1017  0.2191
21892SOL    HW167117   1.138   0.360  11.778 -0.0864  0.2477 -0.3961
21892SOL    HW267118   1.221   0.478  11.824 -0.5920  1.5490 -2.6653
21893SOL     OW67119   4.652   3.405   5.849  0.0290  0.3851  0.4728
21893SOL    HW167120   4.627   3.493   5.819  0.0228 -0.0665 -0.9495
21893SOL    HW267121   4.705   3.370   5.777 -1.1849 -1.3080  0.3432
21894SOL     OW67122   2.545   7.049   6.409 -0.1628  0.1940 -0.0976
21894SOL    HW167123   2.544   7.078   6.317 -0.2671  0.6739  0.0518
21894SOL    HW267124   2.623   7.090   6.446  1.4033 -2.1523 -0.6370
21895SOL     OW67125   0.780   1.258   7.299 -0.0036  0.5975  0.1858
21895SOL    HW167126   0.699   1.235   7.346 -0.4042 -0.9463 -1.1563
21895SOL    HW267127   0.846   1.264   7.367 -0.7290 -0.7491  1.0712
21896SOL     OW67128   2.226   2.473   8.364  0.0810 -0.3938  0.1191
21896SOL    HW167129   2.133   2.459   8.345 -0.3724  1.1282  1.0216
21896SOL    HW267130   2.255   2.391   8.405 -1.4518 -0.1659  1.8023
21897SOL     OW67131   5.131   1.805  12.267 -0.6724  0.0326  0.1556
21897SOL    HW167132   5.142   1.834  12.176 -1.8725  0.7261  0.2059
21897SOL    HW267133   5.182   1.869  12.318  0.2331 -0.5201 -0.0275
21898SOL     OW67134   3.327   7.598   4.162 -0.1051 -0.5269  0.0117
21898SOL    HW167135   3.348   7.546   4.085  0.1281 -1.6394  0.8051
21898SOL    HW267136   3.246   7.644   4.139  0.7269  0.2941 -1.4200
21899SOL     OW67137   3.393   7.050   2.301 -0.2240 -0.0270 -0.5115
21899SOL    HW167138   3.429   6.961   2.311 -0.1398  0.2554  2.5524
21899SOL    HW267139   3.470   7.107   2.303 -0.4640  0.2927  1.3715
21900SOL     OW67140   1.448   5.958   4.214 -0.5977 -0.7943 -0.0132
21900SOL    HW167141   1.540   5.941   4.235 -0.1911  2.6105  1.5942
21900SOL    HW267142   1.445   5.961   4.118  1.1916 -0.1440 -0.0871
21901SOL     OW67143   7.478   0.735  11.049 -0.1853  0.0349  0.4039
21901SOL    HW167144   7.504   0.782  10.970 -1.3986 -0.1455 -0.1341
21901SOL    HW267145   7.517   0.784  11.121 -2.9256  3.0841  0.0505
21902SOL     OW67146   4.398   5.880   3.800 -0.2343 -0.1879  0.5616
21902SOL    HW167147   4.464   5.816   3.825 -1.9563 -1.4806  2.0754
21902SOL    HW267148   4.323   5.827   3.771 -1.7699  1.0594  2.0106
21903SOL     OW67149   2.897   0.212   4.112 -0.2304 -0.6430  0.6967
21903SOL    HW167150   2.868   0.254   4.193 -0.6493  0.7537 -0.1455
21903SOL    HW267151   2.845   0.253   4.043  1.8823  0.0428 -0.5796
21904SOL     OW67152   0.247   4.880   5.269  0.1579 -0.0404 -0.0915
21904SOL    HW167153   0.240   4.815   5.199  0.8624  0.0539 -0.2605
21904SOL    HW267154   0.335   4.868   5.304  0.3693  0.9432 -0.2545
21905SOL     OW67155   1.100   6.806  10.330  0.0645  0.0178  0.3261
21905SOL    HW167156   1.125   6.839  10.416  1.6275  0.7673 -0.3831
21905SOL    HW267157   1.086   6.712  10.344  2.0571 -0.2292  1.0784
21906SOL     OW67158   5.487   6.689  10.771  0.5614 -0.1290  0.1061
21906SOL    HW167159   5.526   6.777  10.778  1.1879 -0.4322  0.4721
21906SOL    HW267160   5.497   6.666  10.679 -1.9075  1.2122 -0.6121
21907SOL     OW67161   2.326   1.266   9.798  0.1188 -0.0524 -0.1457
21907SOL    HW167162   2.402   1.304   9.842 -0.9320 -1.0572  2.7714
21907SOL    HW267163   2.255   1.326   9.818 -0.3679 -0.4539 -0.6407
21908SOL     OW67164   7.734   0.093   0.947 -0.1518  0.3483 -0.0320
21908SOL    HW167165   7.707   0.059   1.032 -0.7109 -0.5167 -0.5409
21908SOL    HW267166   7.779   0.020   0.905  0.4128  0.8725 -0.3626
21909SOL     OW67167   1.932   7.522   8.699 -0.3165  0.6366 -0.3372
21909SOL    HW167168   1.995   7.584   8.735  0.8582 -0.6724 -0.0420
21909SOL    HW267169   1.986   7.454   8.658 -1.5708  0.0573 -1.0793
21910SOL     OW67170   0.950   2.566   4.968  0.1829 -0.4614  0.4001
21910SOL    HW167171   0.929   2.540   5.057  0.8294  0.8176  0.9614
21910SOL    HW267172   0.866   2.567   4.922 -0.8135  2.4879  2.0102
21911SOL     OW67173   0.391   5.690   1.096  0.1028 -0.5254  0.4749
21911SOL    HW167174   0.366   5.774   1.135  0.2011  0.3372 -1.2492
21911SOL    HW267175   0.336   5.683   1.018 -0.2242 -2.2990  0.8232
21912SOL     OW67176   2.915   2.312   6.945 -0.3207  0.0932  0.6235
21912SOL    HW167177   2.987   2.374   6.929 -0.8538  0.9873  1.5355
21912SOL    HW267178   2.909   2.261   6.864 -0.3652  1.7593 -0.4772
21913SOL     OW67179   6.653   3.370   9.962  0.7806  0.0953  0.3426
21913SOL    HW167180   6.599   3.442   9.995 -1.3103 -0.6544 -1.2259
21913SOL    HW267181   6.678   3.322  10.040 -1.4492  0.1030  1.1567
21914SOL     OW67182   7.602   3.712   7.770  0.4377 -0.2811  0.2561
21914SOL    HW167183   7.551   3.697   7.849 -1.8031  1.0889 -0.8367
21914SOL    HW267184   7.564   3.655   7.704  1.0104 -0.0122 -0.3267
21915SOL     OW67185   4.188   3.546  10.786  0.5456  0.0275 -0.5481
21915SOL    HW167186   4.092   3.548  10.789  0.5801  0.2393  0.9626
21915SOL    HW267187   4.216   3.616  10.845  1.6593  1.2138 -2.3781
21916SOL     OW67188   7.495   6.501  12.127 -0.2798  0.1813 -0.2579
21916SOL    HW167189   7.507   6.445  12.050  0.1819  0.1910 -0.1946
21916SOL    HW267190   7.441   6.448  12.186 -1.4974  0.5698 -1.0009
21917SOL     OW67191   5.262   4.318  10.191  0.0008 -0.0095  0.3764
21917SOL    HW167192   5.312   4.323  10.109 -0.1589 -0.1670  0.2704
21917SOL    HW267193   5.311   4.255  10.244 -2.3357 -3.5347 -1.3066
21918SOL     OW67194   5.360   5.655   9.658 -0.1285 -0.2888 -0.2581
21918SOL    HW167195   5.373   5.626   9.568 -1.2755  0.1480 -0.5814
21918SOL    HW267196   5.365   5.750   9.654  0.3192 -0.2870  0.2350
21919SOL     OW67197   4.706   3.013   4.799  0.3826 -0.3845 -0.1986
21919SOL    HW167198   4.786   3.045   4.759 -0.5425  0.4186 -1.4874
21919SOL    HW267199   4.682   3.080   4.863 -0.0056  0.0960 -0.8336
21920SOL     OW67200   3.375   2.583   5.562  0.3269 -0.1395  0.2603
21920SOL    HW167201   3.282   2.573   5.585 -0.6961  2.4330 -2.1815
21920SOL    HW267202   3.391   2.677   5.568  1.3500  0.1203 -3.8398
21921SOL     OW67203   7.382   4.404   7.161 -0.0744 -0.1609 -0.0450
21921SOL    HW167204   7.471   4.425   7.190 -0.7247  0.8631  1.3023
21921SOL    HW267205   7.384   4.309   7.144  1.5497  0.0371 -1.1814
21922SOL     OW67206   4.681   6.609   5.355  0.1204  0.0945  0.7381
21922SOL    HW167207   4.740   6.550   5.402  0.2081 -0.2321  0.2287
21922SOL    HW267208   4.595   6.590   5.390  0.1535 -0.3132  0.6056
21923SOL     OW67209   6.727   7.693   4.094 -0.4466 -0.2411  0.1865
21923SOL    HW167210   6.806   7.667   4.142  0.1192 -0.4801 -0.8445
21923SOL    HW267211   6.759   7.746   4.021 -1.3492  0.7132  0.4647
21924SOL     OW67212   4.371   2.289   7.091  1.0155 -0.3817  0.3169
21924SOL    HW167213   4.460   2.263   7.067  1.0860  1.3594 -1.6135
21924SOL    HW267214   4.318   2.262   7.016  0.0724 -0.4717  1.0015
21925SOL     OW67215   1.137   3.479   2.491 -0.1173 -0.7563 -0.4511
21925SOL    HW167216   1.127   3.384   2.480  0.7849 -1.1198  1.4731
21925SOL    HW267217   1.231   3.494   2.486 -0.2158 -0.0274 -0.2309
21926SOL     OW67218   5.013   4.208   0.043 -0.3158 -0.1911  0.8401
21926SOL    HW167219   5.028   4.302   0.052 -2.1918  0.2768 -0.3646
21926SOL    HW267220   4.949   4.187   0.111 -0.5155 -0.4255  0.5822
21927SOL     OW67221   6.931   1.832   6.707  0.3244  0.8068 -0.2588
21927SOL    HW167222   6.869   1.762   6.727  1.3627  0.3870  1.7412
21927SOL    HW267223   7.014   1.787   6.691  0.2433  1.3741 -2.7134
21928SOL     OW67224   5.612   0.904   1.059  0.5952 -0.1160 -0.1371
21928SOL    HW167225   5.625   0.912   0.964  2.2860 -0.2115  0.0623
21928SOL    HW267226   5.653   0.820   1.082  1.3141  0.4912  0.8520
21929SOL     OW67227   5.014   3.557   9.935  0.2405 -0.8934 -0.4637
21929SOL    HW167228   5.027   3.476   9.886  2.8053 -1.3909  0.8900
21929SOL    HW267229   5.046   3.537  10.023 -0.9825  1.0161  0.4814
21930SOL     OW67230   1.686   5.143   0.955 -0.5559 -0.0621 -0.4137
21930SOL    HW167231   1.599   5.176   0.933 -0.9351 -0.9268 -0.2338
21930SOL    HW267232   1.681   5.049   0.940  0.3947 -0.1088 -0.5374
21931SOL     OW67233   3.948   4.862   2.043 -0.1178  0.3614 -0.3340
21931SOL    HW167234   3.882   4.793   2.049  0.0142  0.2870  0.2797
21931SOL    HW267235   3.930   4.919   2.117 -0.4540  1.1961 -1.0475
21932SOL     OW67236   4.001   3.330  11.153 -0.0700  0.7785 -0.1026
21932SOL    HW167237   3.976   3.391  11.083  0.3822  1.7124  0.5406
21932SOL    HW267238   4.044   3.258  11.106 -0.0367  1.2454 -0.8117
21933SOL     OW67239   6.398   0.875   3.651  0.1234 -0.0174  0.2361
21933SOL    HW167240   6.329   0.824   3.608  0.4294  1.6596 -2.3892
21933SOL    HW267241   6.479   0.829   3.630  0.0475 -0.9538  1.7890
21934SOL     OW67242   1.573   5.487  11.451  0.2127 -0.0178  0.1177
21934SOL    HW167243   1.482   5.512  11.434  1.2250  3.4964 -0.8583
21934SOL    HW267244   1.602   5.443  11.371 -0.3724 -0.3836  0.1054
21935SOL     OW67245   3.095   4.486   3.718  0.1538  0.8332 -0.7695
21935SOL    HW167246   3.186   4.463   3.732  0.2613  1.7514  0.1750
21935SOL    HW267247   3.047   4.404   3.728  0.7672  0.5466 -0.1546
21936SOL     OW67248   5.830   4.443   1.950 -0.2578  0.1022 -0.2808
21936SOL    HW167249   5.864   4.531   1.934 -1.3609  1.0579  2.1683
21936SOL    HW267250   5.899   4.398   1.999  1.3877 -1.4142 -3.6231
21937SOL     OW67251   0.032   7.506   5.508 -0.1087 -0.2478  0.8604
21937SOL    HW167252   0.082   7.477   5.584  1.2940 -1.0044 -0.2894
21937SOL    HW267253   0.095   7.555   5.455 -0.9351 -0.1248 -0.0414
21938SOL     OW67254   5.044   6.317   7.679 -0.1463 -0.3748 -0.0883
21938SOL    HW167255   5.002   6.397   7.647 -1.0674 -0.7443  0.1796
21938SOL    HW267256   5.132   6.320   7.640  0.0917  1.1191  0.4971
21939SOL     OW67257   4.125   0.318   4.595  0.2696 -0.2575 -0.2720
21939SOL    HW167258   4.198   0.257   4.601  1.3433  1.0224  0.3361
21939SOL    HW267259   4.047   0.264   4.607  1.1788 -1.4888  0.3054
21940SOL     OW67260   6.983   0.716   1.715  0.2802  0.1901 -0.6204
21940SOL    HW167261   7.060   0.662   1.698  0.9374  0.9570 -0.0953
21940SOL    HW267262   6.960   0.698   1.806  1.1837  1.6302 -0.0876
21941SOL     OW67263   4.487   2.761   3.731 -0.6366 -0.6886  0.0592
21941SOL    HW167264   4.490   2.856   3.745  1.6270 -0.4809 -1.2215
21941SOL    HW267265   4.520   2.723   3.813  2.6903 -0.0426 -0.8158
21942SOL     OW67266   6.652   4.064   5.287  0.5559 -0.3826  0.3388
21942SOL    HW167267   6.572   4.108   5.258  1.5645  1.9424  0.9041
21942SOL    HW267268   6.628   3.971   5.292 -1.7257  0.0946 -0.7057
21943SOL     OW67269   6.975   1.973   5.733 -0.2423  0.4706  0.4072
21943SOL    HW167270   6.942   1.884   5.724 -0.8668  0.7817 -0.5198
21943SOL    HW267271   6.957   1.996   5.824 -1.2794  0.1125  0.3084
21944SOL     OW67272   5.216   7.354   8.232  0.1398 -0.1514  0.4962
21944SOL    HW167273   5.175   7.284   8.181 -0.0149  0.6743 -0.5540
21944SOL    HW267274   5.142   7.406   8.264  0.3126  1.2113 -1.2150
21945SOL     OW67275   2.133   7.160   1.539  0.0649 -0.2300 -0.4171
21945SOL    HW167276   2.227   7.177   1.529  0.1488 -0.5757 -0.2424
21945SOL    HW267277   2.096   7.242   1.570  0.4957 -0.4216  0.6403
21946SOL     OW67278   5.733   6.171   0.324 -0.5341  0.5651 -0.0126
21946SOL    HW167279   5.810   6.207   0.367  0.6417 -1.0246 -0.6992
21946SOL    HW267280   5.706   6.098   0.379 -1.3640  0.8855  0.0325
21947SOL     OW67281   6.928   5.346  10.630 -0.2426 -0.1688 -0.5783
21947SOL    HW167282   6.902   5.383  10.546 -1.7447  1.2824  0.4816
21947SOL    HW267283   7.010   5.391  10.652 -0.6822  0.6072 -0.5234
21948SOL     OW67284   7.244   2.364   4.020 -0.3642 -0.3246 -0.4245
21948SOL    HW167285   7.294   2.409   3.951 -0.2078  0.8644  0.4327
21948SOL    HW267286   7.294   2.285   4.038  1.1880  0.7812  0.3260
21949SOL     OW67287   3.368   1.492   8.989 -0.4677  0.2927  0.3481
21949SOL    HW167288   3.420   1.536   9.056  2.8071 -0.2139 -1.6541
21949SOL    HW267289   3.390   1.400   8.998 -2.3109 -0.1912  0.4016
21950SOL     OW67290   6.825   7.311   4.110 -0.0948  0.1547 -0.2614
21950SOL    HW167291   6.905   7.301   4.160  1.0350 -1.3632 -2.2128
21950SOL    HW267292   6.845   7.377   4.044 -0.8864  0.6650 -0.0137
21951SOL     OW67293   6.774   6.354  11.085  0.3317  0.7418  0.3016
21951SOL    HW167294   6.808   6.442  11.103  0.0051  0.8853  0.2127
21951SOL    HW267295   6.826   6.324  11.010  1.3901  0.3167  1.1694
21952SOL     OW67296   7.905   1.444   3.598  0.5829  0.1223  0.1360
21952SOL    HW167297   7.874   1.394   3.523 -0.0188 -0.1035  0.5195
21952SOL    HW267298   7.855   1.526   3.594  0.0263 -0.1737  0.6625
21953SOL     OW67299   2.672   4.913  12.121  0.2606 -0.4702 -0.3887
21953SOL    HW167300   2.666   4.866  12.038  0.9122  0.8651 -1.2180
21953SOL    HW267301   2.631   4.998  12.104 -0.5953 -0.5794  0.9886
21954SOL     OW67302   2.858   2.218   7.461  0.1101 -0.6601  0.1890
21954SOL    HW167303   2.850   2.312   7.443  0.9539 -0.6515 -0.2062
21954SOL    HW267304   2.814   2.176   7.387  3.5795 -0.6239 -2.1902
21955SOL     OW67305   7.202   4.910   0.899 -0.2257 -0.0349  0.9831
21955SOL    HW167306   7.221   5.002   0.881  0.6410 -0.0604  1.7059
21955SOL    HW267307   7.147   4.882   0.826 -0.5403  1.0674  0.7888
21956SOL     OW67308   6.167   5.964   3.262  0.0618 -0.1981 -0.3355
21956SOL    HW167309   6.149   6.057   3.250 -0.9453 -0.1433  1.1955
21956SOL    HW267310   6.262   5.958   3.268  0.1245  0.7594 -0.2468
21957SOL     OW67311   1.731   3.259  12.019  0.1411  0.3622 -0.2777
21957SOL    HW167312   1.662   3.312  11.979  0.5587  0.3440 -1.0265
21957SOL    HW267313   1.689   3.175  12.038  0.0467  0.2407 -1.0279
21958SOL     OW67314   6.049   7.940  10.465 -0.2773 -0.0107 -0.3984
21958SOL    HW167315   6.057   8.030  10.433  0.3738  0.0678 -0.0388
21958SOL    HW267316   6.095   7.940  10.549 -0.3709 -0.6549 -0.3401
21959SOL     OW67317   5.075   1.604   3.905 -0.1625 -0.4820 -0.0570
21959SOL    HW167318   5.003   1.578   3.964 -0.3329  1.8717  0.9053
21959SOL    HW267319   5.034   1.609   3.819 -0.7194 -0.8811  0.1725
21960SOL     OW67320   3.594   2.875   4.078 -0.6676 -0.1063 -0.5382
21960SOL    HW167321   3.650   2.807   4.041  0.9732  1.0521 -0.2863
21960SOL    HW267322   3.651   2.924   4.137 -2.0262  0.9712 -0.0660
21961SOL     OW67323   4.294   5.626   9.157 -0.1258 -0.0125 -1.0599
21961SOL    HW167324   4.286   5.546   9.106  0.3665 -1.7548  1.4459
21961SOL    HW267325   4.386   5.630   9.183 -0.6138  0.0678  0.7825
21962SOL     OW67326   3.983   7.433   9.899 -0.0451 -0.2459  0.1069
21962SOL    HW167327   4.019   7.520   9.916  0.2406 -0.5281  1.0248
21962SOL    HW267328   3.987   7.389   9.984 -2.4649 -0.3267  0.2414
21963SOL     OW67329   4.163   6.325   1.979  0.1460 -0.2453 -0.6475
21963SOL    HW167330   4.173   6.230   1.971  0.6749 -0.1192 -1.5533
21963SOL    HW267331   4.133   6.354   1.893  0.6205  0.4884 -0.5777
21964SOL     OW67332   3.048   2.936   9.651  1.1430  0.8177  0.8066
21964SOL    HW167333   3.026   2.856   9.605  2.0750  0.8983  0.1917
21964SOL    HW267334   3.142   2.927   9.671  2.1164  3.0373 -2.0467
21965SOL     OW67335   1.568   0.254   5.285 -0.1104 -0.0508  0.0261
21965SOL    HW167336   1.662   0.273   5.287  0.0433 -0.8041  1.6904
21965SOL    HW267337   1.536   0.281   5.372 -2.0373  2.8376 -1.4023
21966SOL     OW67338   6.357   4.792   8.363  0.8530 -0.0134 -0.3990
21966SOL    HW167339   6.297   4.795   8.288  1.5786 -0.5910 -1.0160
21966SOL    HW267340   6.372   4.699   8.377  0.3409  0.0714  0.7927
21967SOL     OW67341   4.827   1.600   4.841  0.1140 -0.4490  0.6854
21967SOL    HW167342   4.869   1.590   4.755 -0.2275 -1.5355  0.6323
21967SOL    HW267343   4.767   1.525   4.847 -0.3140 -0.0426  1.6174
21968SOL     OW67344   1.495   5.771  11.806 -0.4545 -0.1679 -0.1980
21968SOL    HW167345   1.509   5.703  11.873  0.5764 -0.2745 -0.5156
21968SOL    HW267346   1.469   5.848  11.856  1.0680 -0.0245  0.4091
21969SOL     OW67347   3.724   1.674   0.182 -0.4681  0.2802  0.5258
21969SOL    HW167348   3.737   1.712   0.269  1.3282 -0.4398  0.6058
21969SOL    HW267349   3.811   1.670   0.144 -1.4009  2.3940 -2.1546
21970SOL     OW67350   2.856   5.956   3.332 -0.1048 -0.1546  0.7270
21970SOL    HW167351   2.816   6.034   3.294 -1.0701 -0.8251  0.3249
21970SOL    HW267352   2.784   5.912   3.378 -0.4221 -2.4780 -1.7696
21971SOL     OW67353   4.692   4.715   6.539 -0.4144  0.6476  0.7942
21971SOL    HW167354   4.753   4.772   6.586 -0.9720  1.8573  0.0953
21971SOL    HW267355   4.622   4.699   6.602  0.1749 -0.0139  1.2965
21972SOL     OW67356   4.707   3.093   4.417 -0.1349  0.1796  0.3402
21972SOL    HW167357   4.645   3.109   4.487 -0.0830  2.2558 -0.0222
21972SOL    HW267358   4.697   3.000   4.396 -0.0686 -0.5466  3.1188
21973SOL     OW67359   5.303   1.493   6.160 -0.1046  0.1966 -0.3056
21973SOL    HW167360   5.289   1.444   6.242 -1.0793 -0.1400 -0.6595
21973SOL    HW267361   5.260   1.440   6.093 -1.6809  1.7867 -0.6329
21974SOL     OW67362   0.476   7.134   7.702 -0.4970  0.0544  0.0275
21974SOL    HW167363   0.454   7.192   7.775  0.8128 -0.2160  0.6785
21974SOL    HW267364   0.560   7.167   7.670 -0.0129 -1.1165  0.0359
21975SOL     OW67365   1.065   4.608   7.932 -0.2137 -0.4067 -0.2549
21975SOL    HW167366   1.037   4.532   7.983 -3.5500 -1.0849 -2.7099
21975SOL    HW267367   1.127   4.572   7.868 -1.3355 -1.0034 -1.0335
21976SOL     OW67368   2.256   0.043  10.580 -0.2611 -0.0732 -0.3083
21976SOL    HW167369   2.252   0.104  10.506  0.7089  0.8513  0.3599
21976SOL    HW267370   2.347   0.048  10.610 -0.6854 -0.2417  1.0957
21977SOL     OW67371   2.713   7.534   0.315 -0.4714 -0.5073  0.5239
21977SOL    HW167372   2.731   7.450   0.357  0.3485 -0.3593  0.4822
21977SOL    HW267373   2.744   7.599   0.379 -0.8133 -0.2444  0.4238
21978SOL     OW67374   4.167   6.620  10.944 -0.6937 -0.0387  0.2043
21978SOL    HW167375   4.175   6.575  10.860  2.3987 -1.1082  0.9444
21978SOL    HW267376   4.148   6.550  11.007  1.1879  0.0402  0.9320
21979SOL     OW67377   3.718   7.542   2.198  0.2570 -0.2246  0.0771
21979SOL    HW167378   3.806   7.516   2.171  0.3730 -0.6487  0.8532
21979SOL    HW267379   3.672   7.559   2.115  1.0341 -0.0879 -0.3343
21980SOL     OW67380   4.384   5.937   1.077  0.0157  0.4375  0.0274
21980SOL    HW167381   4.383   5.987   1.159 -0.1748 -1.1972  1.0708
21980SOL    HW267382   4.477   5.920   1.060  0.0835  1.1768 -0.3596
21981SOL     OW67383   0.903   6.369  10.308  0.3388 -0.1493  0.4585
21981SOL    HW167384   0.912   6.300  10.242  2.3200 -0.2021  0.7138
21981SOL    HW267385   0.885   6.322  10.389 -0.3062 -0.2145  0.2807
21982SOL     OW67386   7.945   6.644   9.155  0.0408  0.5429 -0.3948
21982SOL    HW167387   7.878   6.633   9.222 -1.5756 -2.1981 -2.2732
21982SOL    HW267388   8.000   6.715   9.188 -1.5397  0.3794  3.0421
21983SOL     OW67389   7.718   5.182   2.622  0.8566 -0.4149 -0.4306
21983SOL    HW167390   7.783   5.251   2.606  0.0856  1.0336  2.1885
21983SOL    HW267391   7.639   5.229   2.647  0.0303 -2.2418  0.5561
21984SOL     OW67392   1.821   0.143   8.077  0.0599  0.3564 -0.5250
21984SOL    HW167393   1.821   0.049   8.058 -0.4242  0.2863 -0.1864
21984SOL    HW267394   1.817   0.148   8.172  0.0975  0.7246 -0.5401
21985SOL     OW67395   1.476   2.916   2.526  0.5558 -0.1907 -0.7565
21985SOL    HW167396   1.481   2.928   2.621  0.5331 -1.8153 -0.5281
21985SOL    HW267397   1.428   2.993   2.495 -3.1775 -1.5721  1.0210
21986SOL     OW67398   6.963   1.156   2.129 -0.2898  0.4499  0.8956
21986SOL    HW167399   6.966   1.104   2.048  0.0885  0.5588  0.8388
21986SOL    HW267400   6.978   1.093   2.199  1.1129  0.6034  0.7723
21987SOL     OW67401   2.599   1.473  10.186  0.3085 -0.1522  0.5398
21987SOL    HW167402   2.540   1.547  10.202  0.3704  0.1480 -0.5425
21987SOL    HW267403   2.611   1.433  10.272 -0.4312  0.5666  0.9934
21988SOL     OW67404   7.143   7.263   0.743  0.1718 -0.5270  0.0346
21988SOL    HW167405   7.170   7.202   0.812  0.4595  0.0635  0.4495
21988SOL    HW267406   7.135   7.347   0.788 -0.9033 -0.3923 -0.3916
21989SOL     OW67407   1.159   2.918   4.560 -0.0503 -0.3625  0.4174
21989SOL    HW167408   1.096   2.852   4.589 -0.0619  0.4090  2.2999
21989SOL    HW267409   1.119   2.957   4.482 -2.9958  1.4990  2.6341
21990SOL     OW67410   4.993   4.262   0.911 -0.0362  0.2143 -0.1740
21990SOL    HW167411   5.033   4.348   0.921  0.1886  0.1367 -0.4134
21990SOL    HW267412   5.046   4.204   0.966  0.6161 -0.0260 -1.0383
21991SOL     OW67413   4.049   1.670   5.166 -0.1407  0.9119  0.1041
21991SOL    HW167414   4.097   1.591   5.192 -0.7354  0.3982 -0.3132
21991SOL    HW267415   4.081   1.738   5.224 -1.4685 -0.2022  2.2707
21992SOL     OW67416   4.842   3.002   7.135  0.2343  0.2430 -0.0172
21992SOL    HW167417   4.905   2.949   7.087 -0.5424 -0.1257 -0.6568
21992SOL    HW267418   4.757   2.978   7.098 -0.1971  1.4434  0.1464
21993SOL     OW67419   5.118   3.288   1.219  0.0078  0.2266  0.0543
21993SOL    HW167420   5.123   3.331   1.304  1.3547 -0.5878  0.4285
21993SOL    HW267421   5.085   3.200   1.239 -2.0129  0.7826 -0.6033
21994SOL     OW67422   4.767   1.039   8.328  0.4675  0.1322 -0.1930
21994SOL    HW167423   4.702   0.982   8.370  0.7435 -1.3130 -1.6548
21994SOL    HW267424   4.843   1.035   8.386  0.5315 -1.1267 -0.3397
21995SOL     OW67425   1.658   5.982   2.670  0.2906 -0.0541  0.0134
21995SOL    HW167426   1.647   6.026   2.754  0.8475  0.9029 -0.4078
21995SOL    HW267427   1.695   5.896   2.692  1.6845  0.6930  0.6500
21996SOL     OW67428   4.056   6.792   5.080 -0.2548  0.1124  0.0698
21996SOL    HW167429   3.961   6.799   5.085 -0.4180 -0.7195 -1.4103
21996SOL    HW267430   4.072   6.704   5.046  0.9605  0.8812 -1.4612
21997SOL     OW67431   6.255   7.497   1.470 -0.5356  0.1657 -0.2233
21997SOL    HW167432   6.331   7.485   1.412 -1.7400  0.0261 -1.8567
21997SOL    HW267433   6.251   7.416   1.521  1.1514  0.7083  0.8402
21998SOL     OW67434   0.307   6.591  11.953 -0.4991  0.0798 -0.3649
21998SOL    HW167435   0.366   6.630  11.889  0.0351 -0.7573 -0.4099
21998SOL    HW267436   0.238   6.551  11.901 -0.5228  0.1346 -0.3747
21999SOL     OW67437   3.783   5.323  12.253  0.8119 -0.6279  0.0817
21999SOL    HW167438   3.755   5.376  12.328 -0.4007  0.0592 -0.8373
21999SOL    HW267439   3.831   5.251  12.293 -0.3307 -0.6213  1.5814
22000SOL     OW67440   6.418   1.316   2.427  0.4884 -0.0629 -0.4151
22000SOL    HW167441   6.406   1.336   2.335  1.4795 -1.1393 -0.7963
22000SOL    HW267442   6.393   1.224   2.435  2.6426 -0.6730 -0.1072
22001SOL     OW67443   2.728   0.252  12.419 -0.7243  0.1654  0.0579
22001SOL    HW167444   2.709   0.216  12.333 -0.7506  1.0399 -0.3111
22001SOL    HW267445   2.741   0.345  12.404  1.0576  0.0695  0.7098
22002SOL     OW67446   5.867   3.339   3.191  0.5065 -0.4867 -0.0356
22002SOL    HW167447   5.951   3.349   3.236  0.1336  1.0484  0.3759
22002SOL    HW267448   5.890   3.333   3.098  1.1247 -1.2538  0.1526
22003SOL     OW67449   6.902   1.035  10.585  0.3009  0.3077  1.5615
22003SOL    HW167450   6.834   1.030  10.651 -1.2651 -2.0757 -0.0561
22003SOL    HW267451   6.939   0.946  10.582  2.3196  1.0923  1.1732
22004SOL     OW67452   0.260   7.496  10.284 -0.1666  0.0150 -0.2767
22004SOL    HW167453   0.226   7.407  10.286 -1.9243  0.6494  1.4217
22004SOL    HW267454   0.243   7.527  10.195 -4.2300  0.2624  0.4037
22005SOL     OW67455   6.514   3.848   7.202  0.2527  0.0272  0.3235
22005SOL    HW167456   6.470   3.793   7.138 -1.7686 -0.1062  1.7230
22005SOL    HW267457   6.597   3.802   7.220  0.8702  0.0642 -2.0832
22006SOL     OW67458   0.824   3.441  11.514 -0.3738 -0.4634  0.1188
22006SOL    HW167459   0.840   3.502  11.586 -1.5060 -0.4848  0.3964
22006SOL    HW267460   0.895   3.458  11.452  0.7620 -0.6121  1.3296
22007SOL     OW67461   1.933   3.406   3.126 -0.2487 -0.6296  0.0046
22007SOL    HW167462   1.923   3.423   3.219  0.1067  0.6896 -0.1734
22007SOL    HW267463   1.857   3.449   3.085  1.8520  2.8063 -0.6666
22008SOL     OW67464   5.859   6.872   6.706  0.1301  0.1306 -0.0357
22008SOL    HW167465   5.948   6.848   6.681  0.1970 -0.1135  0.4367
22008SOL    HW267466   5.836   6.811   6.776  0.7526  2.1473  2.0584
22009SOL     OW67467   5.874   2.531   3.800 -0.3334  0.9043 -0.5622
22009SOL    HW167468   5.784   2.502   3.787  0.0495 -1.5971  1.5099
22009SOL    HW267469   5.879   2.557   3.892  1.4808 -1.2174  0.0543
22010SOL     OW67470   0.481   1.804   7.517 -0.1244 -0.7185 -0.0587
22010SOL    HW167471   0.529   1.821   7.437 -1.0603  0.1203 -0.4748
22010SOL    HW267472   0.547   1.807   7.586  0.3264  1.1890 -0.5206
22011SOL     OW67473   5.036   2.691   5.513  0.1860 -0.7437  0.5925
22011SOL    HW167474   4.973   2.761   5.534 -1.3099 -1.9101  0.1617
22011SOL    HW267475   5.054   2.650   5.598  0.2786 -0.4738  0.7045
22012SOL     OW67476   7.131   5.209   1.159  0.0636 -0.8593 -0.0128
22012SOL    HW167477   7.134   5.122   1.200 -0.3691 -0.2152  1.4794
22012SOL    HW267478   7.038   5.226   1.147  0.1667 -0.7762 -0.6928
22013SOL     OW67479   4.601   1.746   6.947  0.5766  0.8476  0.2015
22013SOL    HW167480   4.594   1.831   6.903 -0.0505  0.4047 -0.6038
22013SOL    HW267481   4.622   1.767   7.037  0.1376  1.8819  0.0803
22014SOL     OW67482   3.316   2.767  11.905  0.5162 -0.6915  0.0312
22014SOL    HW167483   3.313   2.738  11.997 -1.3169 -0.5171  0.0589
22014SOL    HW267484   3.284   2.692  11.856 -0.3605 -0.1367 -0.2681
22015SOL     OW67485   3.897   2.631  11.456  0.3209  0.1663  0.1862
22015SOL    HW167486   3.908   2.541  11.426  0.9500  1.0263 -2.3622
22015SOL    HW267487   3.979   2.675  11.433  0.2161  1.3298  1.8073
22016SOL     OW67488   0.701   6.436   5.676 -0.4237  0.1057  0.6266
22016SOL    HW167489   0.610   6.458   5.657 -0.6432 -1.9265 -0.9882
22016SOL    HW267490   0.751   6.480   5.607 -0.2482  0.4813  0.9867
22017SOL     OW67491   6.232   0.273  10.795  0.3012  0.1175 -0.3216
22017SOL    HW167492   6.286   0.339  10.838  0.1045 -0.4395  0.8076
22017SOL    HW267493   6.245   0.290  10.701  0.2327  1.7545 -0.0665
22018SOL     OW67494   1.294   6.226   6.223 -0.9150  0.6586 -0.1677
22018SOL    HW167495   1.282   6.177   6.304 -0.4788  1.3995  0.3572
22018SOL    HW267496   1.387   6.216   6.202 -0.8806  1.0406 -0.1992
22019SOL     OW67497   4.298   2.266   1.629 -0.0359  0.1673  0.2138
22019SOL    HW167498   4.341   2.350   1.616  0.9387 -0.4271 -0.5280
22019SOL    HW267499   4.320   2.215   1.551 -1.5645 -0.3897  0.0975
22020SOL     OW67500   6.260   7.158   7.428 -0.0464 -0.3180 -0.0945
22020SOL    HW167501   6.335   7.137   7.373 -2.0392 -1.9718 -2.3747
22020SOL    HW267502   6.199   7.203   7.370 -1.3542 -0.1550  1.3382
22021SOL     OW67503   2.181   4.296   8.664 -0.7350 -0.1153 -0.4085
22021SOL    HW167504   2.146   4.215   8.627 -2.0620  0.8180 -1.2969
22021SOL    HW267505   2.276   4.287   8.657 -0.9091 -0.7237 -2.4432
22022SOL     OW67506   2.495   4.174  10.888 -0.3330 -0.3966 -0.0191
22022SOL    HW167507   2.560   4.238  10.859  0.7225 -1.1670  0.5647
22022SOL    HW267508   2.415   4.225  10.898  0.4423  0.8247  0.3215
22023SOL     OW67509   0.826   3.160  11.638 -0.3331  0.6227 -0.1974
22023SOL    HW167510   0.859   3.242  11.601  0.8908  1.1183  1.8686
22023SOL    HW267511   0.742   3.184  11.678 -0.8265  0.4603 -1.1149
22024SOL     OW67512   0.127   6.570   6.946 -0.3683 -0.3575  0.0880
22024SOL    HW167513   0.220   6.552   6.954 -0.7640 -1.7099  2.7734
22024SOL    HW267514   0.118   6.614   6.862  2.8411  0.9552  0.3004
22025SOL     OW67515   3.774   0.357   3.700 -0.6953 -0.4061 -0.1573
22025SOL    HW167516   3.864   0.324   3.688 -1.4606 -2.6552 -0.1258
22025SOL    HW267517   3.775   0.395   3.788  0.0181 -1.2472  0.2247
22026SOL     OW67518   3.658   0.632   6.429  0.0756 -0.3494  0.6043
22026SOL    HW167519   3.629   0.550   6.470  1.4863 -0.2901  1.7962
22026SOL    HW267520   3.752   0.622   6.419  0.2631  1.0982  0.6929
22027SOL     OW67521   7.836   4.285   4.934 -0.0960  0.0420 -0.4081
22027SOL    HW167522   7.765   4.248   4.987 -0.3074  0.0072 -0.7147
22027SOL    HW267523   7.796   4.359   4.888  0.2607  0.4954  0.0028
22028SOL     OW67524   5.497   5.397  11.598 -0.5643  0.3147 -0.1972
22028SOL    HW167525   5.538   5.448  11.528  0.6245 -0.6720 -0.2410
22028SOL    HW267526   5.494   5.458  11.672  0.9535  0.4422 -0.2138
22029SOL     OW67527   1.979   2.916  10.157 -0.3076 -0.0105  0.4369
22029SOL    HW167528   1.975   2.862  10.236  0.2253  3.6442  3.2476
22029SOL    HW267529   1.889   2.944  10.143 -0.1575  0.6699  0.8005
22030SOL     OW67530   7.069   2.114   0.072  0.6313 -0.3473  0.6907
22030SOL    HW167531   7.081   2.102   0.166 -0.9116 -0.0679  0.9427
22030SOL    HW267532   7.078   2.208   0.058 -2.5289  0.1341  1.1548
22031SOL     OW67533   0.622   5.086   5.632 -0.1414  0.0291  0.3774
22031SOL    HW167534   0.689   5.050   5.690 -0.4766  0.0250  0.7684
22031SOL    HW267535   0.662   5.166   5.597  1.1822 -1.4406 -1.6654
22032SOL     OW67536   6.052   0.138   9.193 -0.1641  0.0639 -0.0309
22032SOL    HW167537   6.063   0.170   9.103 -0.1658  1.8120  0.5559
22032SOL    HW267538   6.100   0.055   9.195 -0.7084 -0.3304 -1.7998
22033SOL     OW67539   7.802   1.454   7.992 -0.1833  0.4328  0.5088
22033SOL    HW167540   7.735   1.519   7.970  0.1668 -0.0791 -2.4725
22033SOL    HW267541   7.754   1.384   8.036 -1.2443  1.0037  0.2931
22034SOL     OW67542   4.493   3.400   0.105 -0.1847  0.9030 -0.0139
22034SOL    HW167543   4.497   3.391   0.200  1.2759  0.6686 -0.0784
22034SOL    HW267544   4.414   3.352   0.080 -0.1077  0.2107  0.9904
22035SOL     OW67545   7.499   5.895   5.427 -0.5750 -0.2108 -0.5986
22035SOL    HW167546   7.434   5.909   5.358 -1.3767  1.2033  0.4084
22035SOL    HW267547   7.461   5.936   5.505 -0.1881 -2.6658  0.9994
22036SOL     OW67548   5.198   2.007  11.580  0.0721  0.1697  0.3489
22036SOL    HW167549   5.264   1.994  11.512 -1.8487 -0.6682 -1.4726
22036SOL    HW267550   5.175   2.100  11.574  0.1344  0.1661  0.0462
22037SOL     OW67551   5.160   5.728   8.153 -0.0295  0.3513  0.2542
22037SOL    HW167552   5.246   5.704   8.188  1.0056  2.4717 -0.5956
22037SOL    HW267553   5.098   5.708   8.223  1.0772 -1.5505  0.7676
22038SOL     OW67554   5.289   0.431   1.643 -0.0923  0.3935  0.3726
22038SOL    HW167555   5.294   0.426   1.738 -1.6604 -0.5144  0.4337
22038SOL    HW267556   5.223   0.497   1.625 -1.6265 -1.1630 -0.0021
22039SOL     OW67557   6.178   6.144   7.091 -0.2532  0.0386 -0.3625
22039SOL    HW167558   6.116   6.110   7.027 -1.3837  1.1318  0.1148
22039SOL    HW267559   6.183   6.076   7.158 -1.1555  0.0343 -0.2827
22040SOL     OW67560   4.465   2.438  10.431 -0.2226 -0.1130 -0.8343
22040SOL    HW167561   4.459   2.418  10.338 -0.2824 -3.5391 -0.2099
22040SOL    HW267562   4.541   2.389  10.461 -0.0658  1.1232  0.9077
22041SOL     OW67563   6.572   2.510   3.035 -0.2131 -0.0937  0.2529
22041SOL    HW167564   6.491   2.561   3.041 -0.0835  0.1330  0.0811
22041SOL    HW267565   6.638   2.565   3.078 -0.2628 -0.5112  0.8664
22042SOL     OW67566   5.630   0.119   3.247 -0.0981 -0.3907 -0.0288
22042SOL    HW167567   5.538   0.143   3.250 -0.3797 -1.4836  0.6562
22042SOL    HW267568   5.638   0.046   3.308  1.3863  0.2152  0.5492
22043SOL     OW67569   0.779   5.501   6.884  0.2384 -0.2185 -1.1300
22043SOL    HW167570   0.770   5.586   6.928 -0.0826  0.0865 -1.7629
22043SOL    HW267571   0.773   5.437   6.954 -0.3393  0.2592 -0.7293
22044SOL     OW67572   2.258   0.130   5.223  0.0981 -0.0231  0.6346
22044SOL    HW167573   2.255   0.213   5.271 -0.5468 -0.4587  1.3654
22044SOL    HW267574   2.322   0.077   5.271  1.5573  0.5109 -0.6279
22045SOL     OW67575   2.414   1.722   0.393 -0.4333  0.3156  0.2548
22045SOL    HW167576   2.492   1.710   0.447 -0.3409  1.8427  0.4940
22045SOL    HW267577   2.352   1.656   0.426  0.5556 -0.5598  0.4114
22046SOL     OW67578   2.753   1.080   8.175  0.0896  0.5112 -0.0922
22046SOL    HW167579   2.834   1.085   8.125  0.6336 -0.8120  0.6034
22046SOL    HW267580   2.690   1.040   8.115  0.6965 -0.9325  0.2012
22047SOL     OW67581   7.219   6.720   5.735 -0.0510 -0.5992  0.3707
22047SOL    HW167582   7.227   6.804   5.780 -2.0752 -0.4598  0.5353
22047SOL    HW267583   7.310   6.696   5.714  0.5196  2.3549 -1.1092
22048SOL     OW67584   1.180   3.586   6.572 -0.0415 -0.1368 -0.0637
22048SOL    HW167585   1.162   3.634   6.490  0.7752 -0.3853 -0.3949
22048SOL    HW267586   1.166   3.494   6.549  3.1443 -0.5388 -0.8182
22049SOL     OW67587   3.492   4.073   9.245  0.1567 -0.4807 -0.2769
22049SOL    HW167588   3.399   4.054   9.240 -0.3803  1.8496 -0.4712
22049SOL    HW267589   3.497   4.160   9.286  2.0760  0.5626 -2.4669
22050SOL     OW67590   6.834   2.303   9.896 -0.7168  0.2106 -0.1822
22050SOL    HW167591   6.797   2.225   9.855 -0.2109 -0.3733  0.4558
22050SOL    HW267592   6.828   2.370   9.828 -0.5219 -0.5585 -0.9877
22051SOL     OW67593   4.419   4.719  10.642 -0.1561  0.4294  0.3158
22051SOL    HW167594   4.326   4.728  10.622 -0.1337 -1.3277 -0.8176
22051SOL    HW267595   4.463   4.780  10.583 -0.5381  0.7593  0.3684
22052SOL     OW67596   7.809   5.065   1.952 -0.4975 -0.3989  0.3384
22052SOL    HW167597   7.859   5.117   2.015 -2.2315  0.7689  0.8269
22052SOL    HW267598   7.859   4.984   1.943  0.4814 -0.0700  2.2435
22053SOL     OW67599   3.097   3.897   2.423  0.5493 -0.4608 -0.1294
22053SOL    HW167600   3.184   3.859   2.411 -0.0067 -1.6888 -0.5041
22053SOL    HW267601   3.081   3.890   2.517  0.8735 -0.1897 -0.0531
22054SOL     OW67602   2.024   5.210   0.084 -0.7654 -0.1399 -0.8671
22054SOL    HW167603   2.074   5.138   0.124 -1.1979 -0.0459 -0.1456
22054SOL    HW267604   2.082   5.245   0.017 -0.0149 -0.2966 -0.3132
22055SOL     OW67605   6.064   3.068   4.429  1.0603 -0.1471 -0.2296
22055SOL    HW167606   6.117   3.146   4.412  0.5686  0.5232  1.0898
22055SOL    HW267607   6.011   3.093   4.505  0.7280 -1.6995  0.0670
22056SOL     OW67608   5.158   2.033   2.070 -0.1733  0.3657  0.3546
22056SOL    HW167609   5.090   2.063   2.130 -1.2946 -0.6714 -0.3289
22056SOL    HW267610   5.212   2.110   2.054 -2.9300  2.1324 -1.4007
22057SOL     OW67611   5.721   2.941   6.519  0.0665 -0.3687  0.1581
22057SOL    HW167612   5.809   2.916   6.546  0.9232 -0.8873 -2.7667
22057SOL    HW267613   5.729   3.034   6.497  0.3195 -0.7542 -1.4990
22058SOL     OW67614   2.984   0.830   7.778 -0.0527 -0.0632  0.3948
22058SOL    HW167615   3.077   0.807   7.769  0.0300  0.5649 -0.4041
22058SOL    HW267616   2.938   0.755   7.741  0.1350 -0.2539  0.5379
22059SOL     OW67617   5.581   2.824  11.861  0.1759  0.0668 -0.9182
22059SOL    HW167618   5.664   2.871  11.867 -0.8283  1.7009  1.4839
22059SOL    HW267619   5.542   2.833  11.948 -1.3104 -3.0024 -1.1525
22060SOL     OW67620   3.688   0.644   2.656  0.4704 -0.1649 -0.0496
22060SOL    HW167621   3.772   0.600   2.672  0.6195  0.2452  0.2968
22060SOL    HW267622   3.674   0.634   2.562  1.2131  0.2962 -0.2204
22061SOL     OW67623   4.078   4.926  12.419 -0.9265 -0.2125  0.2090
22061SOL    HW167624   4.137   4.853  12.400  0.1482  0.3842  1.1446
22061SOL    HW267625   4.037   4.903  12.502 -2.2935 -0.7653 -0.5753
22062SOL     OW67626   5.259   6.298   9.450  0.2979 -0.8492  0.1690
22062SOL    HW167627   5.274   6.390   9.473  0.1068 -0.3482 -1.5892
22062SOL    HW267628   5.309   6.285   9.370 -2.4868 -1.2503 -1.6080
22063SOL     OW67629   7.067   2.893   3.540 -0.1914 -0.0569 -0.6079
22063SOL    HW167630   7.141   2.865   3.486  0.9167 -0.6679  1.1330
22063SOL    HW267631   7.100   2.967   3.590 -0.7403 -0.3346  0.1918
22064SOL     OW67632   4.125   6.418   6.976 -0.0676  0.2893  0.2195
22064SOL    HW167633   4.146   6.391   7.065 -0.3154 -0.2093  0.1283
22064SOL    HW267634   4.037   6.384   6.961  1.3864 -3.1179 -1.6054
22065SOL     OW67635   1.329   3.064   7.518  0.0532 -0.0705 -0.1926
22065SOL    HW167636   1.339   3.009   7.440  0.0641 -2.7397  1.5805
22065SOL    HW267637   1.418   3.078   7.550 -0.1137 -3.0027  1.8732
22066SOL     OW67638   4.145   2.890   4.528  0.1116 -0.0245 -0.8322
22066SOL    HW167639   4.181   2.865   4.443 -0.3221  0.0905 -1.0483
22066SOL    HW267640   4.092   2.968   4.510 -2.1052 -1.4885 -0.9092
22067SOL     OW67641   7.692   6.565   8.250 -0.1439 -0.0913 -0.0573
22067SOL    HW167642   7.703   6.474   8.274 -1.9053 -0.5175 -0.6542
22067SOL    HW267643   7.598   6.573   8.231  0.3366  1.2905 -2.1713
22068SOL     OW67644   0.249   6.005   1.160 -0.7684  0.6357 -0.2205
22068SOL    HW167645   0.214   5.976   1.244 -1.7463  1.4990 -0.3217
22068SOL    HW267646   0.189   5.969   1.094  0.4120 -0.6807 -0.6289
22069SOL     OW67647   4.544   5.220   4.131  0.4094 -0.3474  0.3253
22069SOL    HW167648   4.564   5.222   4.225  0.7462  0.0338  0.2473
22069SOL    HW267649   4.564   5.308   4.100 -1.7580  0.1948  0.3007
22070SOL     OW67650   0.744   0.935   6.634  0.0796  0.2890  0.1096
22070SOL    HW167651   0.750   0.993   6.558  2.0271  1.0474  0.7888
22070SOL    HW267652   0.812   0.870   6.620 -0.8101 -0.7179  0.3146
22071SOL     OW67653   3.407   0.856   2.325  0.4084  0.2298 -0.0217
22071SOL    HW167654   3.396   0.814   2.410 -1.0752 -0.4012 -0.4802
22071SOL    HW267655   3.405   0.950   2.344  1.7809  0.1092  0.8059
22072SOL     OW67656   0.314   3.927  11.910 -0.4304  0.0436 -0.8880
22072SOL    HW167657   0.337   3.838  11.937 -1.2992  0.4152  1.2414
22072SOL    HW267658   0.396   3.965  11.879 -0.0518 -1.4750 -1.8315
22073SOL     OW67659   0.927   5.657   8.522  0.0999 -0.4277 -0.2281
22073SOL    HW167660   0.847   5.658   8.470 -1.1240 -0.7308  1.5538
22073SOL    HW267661   0.981   5.588   8.484 -0.8261 -0.7455 -0.9717
22074SOL     OW67662   1.568   4.290   6.394 -0.6005  0.6750  0.2624
22074SOL    HW167663   1.508   4.311   6.323  0.0879  1.8543  0.0172
22074SOL    HW267664   1.646   4.341   6.376  1.2395 -2.1230 -0.4060
22075SOL     OW67665   0.799   7.843   0.880  0.1977  0.2388 -0.1116
22075SOL    HW167666   0.846   7.834   0.963  0.5258  2.2002 -0.0281
22075SOL    HW267667   0.864   7.878   0.820 -0.2682 -0.3382 -0.9642
22076SOL     OW67668   0.209   5.292  10.941  0.6974  0.1020 -0.1183
22076SOL    HW167669   0.250   5.308  11.026  2.3530 -0.5929 -0.7589
22076SOL    HW267670   0.229   5.371  10.891  1.4962 -0.3362 -0.5079
22077SOL     OW67671   4.897   7.577   1.182 -0.5435  0.2720 -0.0417
22077SOL    HW167672   4.820   7.563   1.127 -0.9920  0.1755  0.6116
22077SOL    HW267673   4.932   7.662   1.153 -2.4369  1.6322  1.4835
22078SOL     OW67674   6.875   2.701   8.122  0.0097 -0.3097 -0.1413
22078SOL    HW167675   6.922   2.772   8.164  0.8662 -0.9086 -0.0705
22078SOL    HW267676   6.785   2.710   8.154  0.4640 -0.2682  1.1990
22079SOL     OW67677   3.551   3.885   3.557  0.2447 -0.5465  0.6058
22079SOL    HW167678   3.616   3.880   3.628  0.2389 -1.4263  0.5591
22079SOL    HW267679   3.536   3.794   3.532 -1.0148 -0.3567  0.6110
22080SOL     OW67680   7.038   4.250   5.893 -0.3600  0.2066 -0.3901
22080SOL    HW167681   7.052   4.291   5.978  0.6408 -1.9004  0.5433
22080SOL    HW267682   7.058   4.319   5.829 -0.6894  1.6958  1.0517
22081SOL     OW67683   7.473   3.876   4.016  0.0652 -0.5353  0.0961
22081SOL    HW167684   7.392   3.827   4.025 -0.1291  0.0146  1.6276
22081SOL    HW267685   7.445   3.966   4.000  0.3085 -0.1386  1.7041
22082SOL     OW67686   1.825   1.221   8.064  0.7129  0.0330 -0.3047
22082SOL    HW167687   1.771   1.276   8.007 -0.3098 -0.8694 -0.2280
22082SOL    HW267688   1.827   1.269   8.148  1.6778  1.0358 -0.8755
22083SOL     OW67689   1.186   6.701   1.410 -0.4353  0.5174  0.6745
22083SOL    HW167690   1.190   6.750   1.328 -2.2137 -0.4728 -0.0740
22083SOL    HW267691   1.168   6.610   1.382 -2.8502  0.4534  2.1487
22084SOL     OW67692   5.916   2.305   3.526  0.0211  1.0737 -0.6248
22084SOL    HW167693   5.939   2.269   3.612  0.8818  0.6934 -1.0065
22084SOL    HW267694   5.820   2.306   3.526  0.0021  1.5870  0.5424
22085SOL     OW67695   1.712   4.433   1.250  0.3167  0.4659  0.2636
22085SOL    HW167696   1.690   4.501   1.186 -0.6424  0.0569  0.1354
22085SOL    HW267697   1.682   4.351   1.209 -0.3849  0.2095  1.2536
22086SOL     OW67698   3.857   2.767   4.533 -0.0121 -0.6038 -0.2543
22086SOL    HW167699   3.782   2.807   4.488  1.1498  1.7808 -0.2337
22086SOL    HW267700   3.925   2.763   4.466  0.0543 -2.2587 -0.1300
22087SOL     OW67701   3.745   4.629   5.632  0.1523 -0.0764  0.2512
22087SOL    HW167702   3.733   4.708   5.685  0.4504  0.5516 -0.6003
22087SOL    HW267703   3.698   4.561   5.680 -0.0836  0.6073  1.0150
22088SOL     OW67704   7.910   2.125  10.842  0.2923  0.2484  0.3806
22088SOL    HW167705   8.003   2.145  10.832  0.7594 -2.5137 -2.0224
22088SOL    HW267706   7.896   2.128  10.937  3.2535 -0.7922  0.9738
22089SOL     OW67707   0.173   7.928   8.500  0.0890 -0.0835 -0.0950
22089SOL    HW167708   0.106   7.993   8.477  0.5664  0.3359 -0.3303
22089SOL    HW267709   0.161   7.913   8.594 -0.5185 -0.2291 -0.1924
22090SOL     OW67710   7.187   3.712   8.892  0.1115  0.1314  0.1884
22090SOL    HW167711   7.249   3.738   8.824 -0.9847  2.5134  0.0108
22090SOL    HW267712   7.241   3.700   8.970  0.9639  0.6545 -0.3082
22091SOL     OW67713   4.649   1.174   1.276 -0.1399  0.0480 -0.7485
22091SOL    HW167714   4.745   1.167   1.276 -0.0047  1.4623  0.6685
22091SOL    HW267715   4.627   1.191   1.368 -1.7325  0.0638 -1.1205
22092SOL     OW67716   2.031   4.620   4.511  0.2750  0.4624 -0.1147
22092SOL    HW167717   2.042   4.693   4.572  0.5888  0.6828 -0.4356
22092SOL    HW267718   2.117   4.609   4.470  0.1404  0.1299 -0.3117
22093SOL     OW67719   3.030   1.130   4.077 -0.3306  0.1457 -0.0419
22093SOL    HW167720   3.041   1.194   4.147 -1.4631  1.4400 -0.9932
22093SOL    HW267721   3.042   1.045   4.120 -2.1778  0.8257  1.9859
22094SOL     OW67722   6.640   1.574  11.166 -0.4755 -0.4279  0.0886
22094SOL    HW167723   6.599   1.530  11.091  0.4933 -1.1002 -0.0683
22094SOL    HW267724   6.655   1.504  11.229 -1.4503  0.1632  1.0059
22095SOL     OW67725   2.146   5.542   8.687  0.0655  0.3401 -0.1208
22095SOL    HW167726   2.120   5.611   8.747 -0.1975  0.6909 -0.6339
22095SOL    HW267727   2.076   5.538   8.623  1.1039  1.0840 -1.3468
22096SOL     OW67728   6.022   4.361   3.580 -0.4278  0.0164 -0.0531
22096SOL    HW167729   5.943   4.317   3.548  0.2018  0.3178 -2.1617
22096SOL    HW267730   5.992   4.411   3.656 -1.9080 -1.1454  0.1879
22097SOL     OW67731   5.707   6.463  10.599 -0.6539  0.1847  0.5222
22097SOL    HW167732   5.620   6.425  10.585 -1.8440  2.3968  1.3711
22097SOL    HW267733   5.725   6.450  10.692  0.2948 -0.9216  0.2040
22098SOL     OW67734   2.565   2.101  10.723 -0.7726  0.4956  0.1973
22098SOL    HW167735   2.645   2.068  10.764 -1.2705 -1.8039 -0.5132
22098SOL    HW267736   2.588   2.188  10.691  0.8831  0.6066  1.5714
22099SOL     OW67737   4.583   3.817   8.525 -0.1377  0.6382 -0.5214
22099SOL    HW167738   4.591   3.726   8.554 -1.8888  0.3965 -0.6496
22099SOL    HW267739   4.673   3.848   8.517  0.5552 -1.4836 -1.7277
22100SOL     OW67740   0.408   5.139   2.685 -0.2987 -0.7001 -0.3985
22100SOL    HW167741   0.343   5.155   2.616  1.6446  0.6145 -2.0477
22100SOL    HW267742   0.480   5.199   2.665 -0.8708  2.2186  4.6453
22101SOL     OW67743   1.899   4.802   2.714 -0.0401  0.4909  0.6395
22101SOL    HW167744   1.834   4.746   2.674  0.7561 -1.3226  1.7706
22101SOL    HW267745   1.848   4.865   2.766 -0.9482  1.0538 -0.8737
22102SOL     OW67746   1.526   0.411   8.234 -0.0665  0.1728 -0.1668
22102SOL    HW167747   1.551   0.500   8.208 -0.4204  0.1108 -0.7500
22102SOL    HW267748   1.552   0.356   8.161  1.4989 -0.4364  0.8115
22103SOL     OW67749   4.422   7.411  11.383 -0.3128  0.0147 -0.3304
22103SOL    HW167750   4.438   7.316  11.379  0.6039  0.1090  0.7209
22103SOL    HW267751   4.471   7.446  11.308  0.5824 -0.2033  0.1364
22104SOL     OW67752   4.666   5.294   8.767  0.6066  0.5087  0.2785
22104SOL    HW167753   4.593   5.315   8.710  1.9965  0.3905 -1.6433
22104SOL    HW267754   4.652   5.203   8.793  0.6380  0.1284 -0.9968
22105SOL     OW67755   0.038   3.039   1.927 -0.2891  0.4115 -0.9459
22105SOL    HW167756  -0.008   2.965   1.887  1.2799 -0.8236 -0.5587
22105SOL    HW267757   0.131   3.022   1.908  0.5779 -0.1869  3.0153
22106SOL     OW67758   2.062   2.013   6.002  0.6599 -0.0138  0.4245
22106SOL    HW167759   2.113   2.025   5.921  0.6899  0.9288  0.5716
22106SOL    HW267760   1.974   1.991   5.971  1.3700 -2.8717  0.1694
22107SOL     OW67761   6.685   4.597  12.135  0.4013 -0.2968 -0.3756
22107SOL    HW167762   6.600   4.640  12.122 -0.1182 -0.9874  0.6541
22107SOL    HW267763   6.663   4.514  12.177  1.5585 -0.6871 -0.5328
22108SOL     OW67764   7.699   1.694   0.212  0.3279  0.4900 -0.3945
22108SOL    HW167765   7.747   1.707   0.294  0.5075 -0.8799 -0.2514
22108SOL    HW267766   7.677   1.600   0.212 -1.9550  0.9755 -0.6727
22109SOL     OW67767   1.581   2.214   3.063 -0.2478  0.3524  0.0891
22109SOL    HW167768   1.628   2.149   3.010 -0.1066 -0.6280  1.3531
22109SOL    HW267769   1.489   2.185   3.059 -0.0362 -0.6700  1.5849
22110SOL     OW67770   6.111   7.808   7.154  0.6455 -0.3449  0.3367
22110SOL    HW167771   6.165   7.756   7.095 -0.4270 -1.0730 -0.0396
22110SOL    HW267772   6.067   7.872   7.098 -2.4995 -2.7571 -0.2548
22111SOL     OW67773   2.573   5.035   6.930 -0.4269 -1.1346 -0.4427
22111SOL    HW167774   2.585   5.087   6.851 -0.8027 -0.0547  0.1881
22111SOL    HW267775   2.507   5.083   6.981 -1.7399 -2.8724 -0.3882
22112SOL     OW67776   0.130   7.890   6.267  0.2249 -0.2189 -0.4707
22112SOL    HW167777   0.042   7.921   6.288  0.1985 -1.3327  1.1459
22112SOL    HW267778   0.163   7.955   6.203 -1.8472  0.0381 -1.3585
22113SOL     OW67779   4.617   1.270   0.027 -0.8227 -0.3105  0.1200
22113SOL    HW167780   4.680   1.218  -0.023 -0.5047 -0.4193  0.6263
22113SOL    HW267781   4.590   1.339  -0.033 -0.4469 -0.4420 -0.2038
22114SOL     OW67782   5.592   1.941   5.110  0.0776 -0.0871 -0.0066
22114SOL    HW167783   5.680   1.962   5.143  0.7038 -2.5516  0.0592
22114SOL    HW267784   5.575   1.853   5.142 -2.0658 -0.0090 -0.8011
22115SOL     OW67785   7.770   1.611   1.152 -0.4532 -0.2322  0.2750
22115SOL    HW167786   7.702   1.595   1.087 -0.2464 -0.8557  0.2035
22115SOL    HW267787   7.846   1.563   1.118  0.4924  1.6399 -0.4194
22116SOL     OW67788   6.063   6.408   7.205  0.0412  0.1791 -0.2704
22116SOL    HW167789   6.028   6.344   7.268  0.1533 -0.3124 -0.6992
22116SOL    HW267790   6.141   6.366   7.169 -0.0668  0.4127 -0.7945
22117SOL     OW67791   5.691   4.715   1.117  0.4370  0.5634  0.1901
22117SOL    HW167792   5.715   4.758   1.199  0.7453 -0.3755  0.6073
22117SOL    HW267793   5.669   4.787   1.058  0.0920  1.2550  1.1280
22118SOL     OW67794   4.158   2.280   3.907 -0.2548  0.3002  0.0647
22118SOL    HW167795   4.208   2.240   3.836 -0.6163 -1.1928  0.6242
22118SOL    HW267796   4.142   2.369   3.877  0.7535  0.1082 -1.1297
22119SOL     OW67797   7.040   6.338   7.807 -0.2238 -0.0765 -0.3549
22119SOL    HW167798   7.025   6.255   7.761  2.1576 -1.7097  1.5622
22119SOL    HW267799   7.017   6.319   7.898 -1.9866  2.1820 -0.2387
22120SOL     OW67800   5.225   4.183   9.549 -0.0773 -0.1182  0.2676
22120SOL    HW167801   5.294   4.226   9.500 -1.4831  2.7546  0.5917
22120SOL    HW267802   5.187   4.119   9.488  2.5315 -1.5212 -0.0127
22121SOL     OW67803   6.116   5.155   3.812 -0.4683  0.2764 -0.4457
22121SOL    HW167804   6.211   5.160   3.808 -0.4682  0.9556  0.2247
22121SOL    HW267805   6.096   5.062   3.806  0.1413  0.2334 -2.3632
22122SOL     OW67806   0.826   3.420   8.535 -0.0069 -0.4131 -0.1119
22122SOL    HW167807   0.805   3.496   8.481  1.7358  0.1162 -0.1068
22122SOL    HW267808   0.906   3.384   8.497  1.3382  0.0088  2.0827
22123SOL     OW67809   2.062   6.870   0.150  0.4657  0.3859  0.1215
22123SOL    HW167810   1.982   6.866   0.097  0.4215  0.2566  0.1978
22123SOL    HW267811   2.031   6.901   0.235  0.4589  0.0893  0.2274
22124SOL     OW67812   6.774   0.614   9.574 -0.6192  0.1588  0.3270
22124SOL    HW167813   6.855   0.583   9.533 -0.5116  0.1480  0.5503
22124SOL    HW267814   6.797   0.699   9.611 -0.2971 -0.5200  1.7283
22125SOL     OW67815   2.899   1.281  11.003  0.3326 -0.1426  0.6181
22125SOL    HW167816   2.924   1.311  10.916  0.7503 -2.1416  0.0023
22125SOL    HW267817   2.851   1.354  11.041  0.7844  1.0402 -1.0005
22126SOL     OW67818   7.278   0.718   1.970  0.1538 -0.1448 -0.4152
22126SOL    HW167819   7.246   0.757   2.051  0.3693 -0.1496 -0.3276
22126SOL    HW267820   7.281   0.791   1.908 -1.8153 -0.4827 -0.9747
22127SOL     OW67821   5.414   6.049   0.676  0.8028  0.4696 -0.0674
22127SOL    HW167822   5.352   6.018   0.742 -0.5987  3.0577 -0.0677
22127SOL    HW267823   5.500   6.031   0.715  0.0534 -0.6539  1.1655
22128SOL     OW67824   0.345   4.175   0.607  0.1872  0.2641  0.1047
22128SOL    HW167825   0.304   4.183   0.521  0.9197  0.2605 -0.2519
22128SOL    HW267826   0.433   4.143   0.589 -0.0529 -0.9142  0.9523
22129SOL     OW67827   6.977   1.760   6.082 -0.0204  0.3227  0.4344
22129SOL    HW167828   6.985   1.841   6.033  3.6462 -0.9553 -1.4421
22129SOL    HW267829   7.055   1.756   6.137 -0.3849 -1.6565  0.9164
22130SOL     OW67830   0.592   7.218   2.063 -1.0147  0.0875  0.3350
22130SOL    HW167831   0.670   7.175   2.098 -1.7241 -0.7684  0.9019
22130SOL    HW267832   0.575   7.291   2.122 -0.5002  0.4384  0.0575
22131SOL     OW67833   4.584   4.616   6.096  0.0052  0.2275  0.5223
22131SOL    HW167834   4.540   4.561   6.031  1.6196 -1.8773  1.0830
22131SOL    HW267835   4.632   4.680   6.044 -2.2554  1.5107 -0.1379
22132SOL     OW67836   3.987   2.045   7.530  0.5180 -0.8286  0.4601
22132SOL    HW167837   3.906   2.093   7.513  1.0762 -0.3645 -1.0234
22132SOL    HW267838   3.959   1.962   7.567 -0.5362  0.0600  1.7319
22133SOL     OW67839   1.235   5.523   0.907 -0.2086 -0.2779 -1.1089
22133SOL    HW167840   1.191   5.590   0.855  0.6244  0.0302 -1.4265
22133SOL    HW267841   1.297   5.482   0.847  0.3640 -0.3029 -0.5130
22134SOL     OW67842   1.562   0.567   0.236 -0.1926 -0.1956 -0.0879
22134SOL    HW167843   1.478   0.539   0.199 -0.4107  0.1376  0.1548
22134SOL    HW267844   1.551   0.660   0.255  0.3683 -0.0482 -0.4303
22135SOL     OW67845   4.427   2.689  10.141 -0.4086  0.4867  0.7412
22135SOL    HW167846   4.473   2.749  10.199  3.3127 -1.0491 -0.3471
22135SOL    HW267847   4.477   2.691  10.060 -2.3319 -1.3542 -0.5852
22136SOL     OW67848   3.219   5.442   0.657  0.0822  0.2237 -0.2055
22136SOL    HW167849   3.272   5.505   0.707  0.8200 -0.0067 -0.6845
22136SOL    HW267850   3.130   5.456   0.688  0.2180  1.5721 -0.3527
22137SOL     OW67851   4.624   4.025   3.842  0.3550 -0.6241  0.0898
22137SOL    HW167852   4.693   4.011   3.906  0.4096  1.1546  0.4669
22137SOL    HW267853   4.543   4.012   3.892  0.3969  0.7685  0.5546
22138SOL     OW67854   4.362   1.345   6.827 -0.0810  0.1421  0.4311
22138SOL    HW167855   4.365   1.251   6.845 -0.6376 -0.3012 -1.5928
22138SOL    HW267856   4.452   1.375   6.841 -0.0711 -0.4849  1.9369
22139SOL     OW67857   6.775   3.160   9.334  0.1211 -0.1808 -0.4674
22139SOL    HW167858   6.861   3.175   9.295  0.1912 -1.2769 -0.7787
22139SOL    HW267859   6.715   3.152   9.260 -0.1872  0.2147 -0.2637
22140SOL     OW67860   3.526   5.770   5.385  0.0064 -0.2734 -0.7451
22140SOL    HW167861   3.616   5.737   5.383  1.7560  3.7475  0.5768
22140SOL    HW267862   3.511   5.793   5.477 -2.0170  0.0925 -1.1111
22141SOL     OW67863   1.810   2.566   9.295 -0.3754  0.0238  0.0491
22141SOL    HW167864   1.856   2.523   9.223  0.0035 -1.3831  1.0902
22141SOL    HW267865   1.725   2.590   9.258 -0.2191 -0.7461 -0.8423
22142SOL     OW67866   6.136   1.016  10.620  0.5437  0.8580 -0.0559
22142SOL    HW167867   6.089   0.939  10.652  3.9616 -0.9756  1.0285
22142SOL    HW267868   6.081   1.090  10.646 -1.4744 -1.0557  1.5320
22143SOL     OW67869   2.668   0.637  10.904  0.1591  0.3043 -0.4915
22143SOL    HW167870   2.600   0.679  10.851  0.0753  0.5417 -0.1986
22143SOL    HW267871   2.720   0.710  10.938 -1.0626  0.3090  1.5052
22144SOL     OW67872   4.002   2.361   8.643 -0.2409  0.3974 -0.6667
22144SOL    HW167873   4.072   2.301   8.620 -0.2303  0.6643 -1.3575
22144SOL    HW267874   3.924   2.306   8.652  0.1612  0.0101  0.7263
22145SOL     OW67875   5.288   4.926   0.404 -0.3449  0.3266 -0.5010
22145SOL    HW167876   5.286   5.021   0.416  0.6861  0.3090 -0.0607
22145SOL    HW267877   5.372   4.908   0.363 -0.4024 -0.4300 -0.3131
22146SOL     OW67878   3.195   4.734   5.705 -0.1275 -0.2448 -0.0081
22146SOL    HW167879   3.228   4.647   5.729  0.0894 -0.0372  0.4566
22146SOL    HW267880   3.266   4.794   5.726 -0.8876  0.2452  1.2889
22147SOL     OW67881   1.566   0.255   1.341  0.3646  0.4172  0.0417
22147SOL    HW167882   1.525   0.298   1.266  0.1507  0.9602  0.4671
22147SOL    HW267883   1.538   0.164   1.334 -1.6037  0.9138  0.7701
22148SOL     OW67884   6.712   7.299   5.804  0.0609  0.0637  0.3367
22148SOL    HW167885   6.698   7.383   5.760  1.0388 -0.0347 -0.1828
22148SOL    HW267886   6.644   7.242   5.768  1.2752 -0.2308 -1.6493
22149SOL     OW67887   1.584   6.779  11.908 -0.1041  0.5353 -0.6176
22149SOL    HW167888   1.601   6.871  11.890 -0.0307  0.9927  1.5238
22149SOL    HW267889   1.625   6.763  11.993 -0.0106 -1.5226 -0.9859
22150SOL     OW67890   4.933   0.615   5.951 -0.0157 -0.1612  0.2986
22150SOL    HW167891   4.977   0.531   5.943 -0.9271 -0.6663  0.4352
22150SOL    HW267892   4.891   0.629   5.867  0.1106  0.1531  0.2843
22151SOL     OW67893   2.761   4.365   8.294  0.2181  0.2531 -0.6746
22151SOL    HW167894   2.827   4.431   8.272 -0.3195  0.5428 -1.4721
22151SOL    HW267895   2.678   4.411   8.283 -0.1231 -0.1526  0.1634
22152SOL     OW67896   5.846   5.912   5.414 -0.7346 -0.4454 -0.2079
22152SOL    HW167897   5.800   5.993   5.391  0.9179  0.6013 -0.0295
22152SOL    HW267898   5.863   5.920   5.507  1.4579  0.1526 -0.5945
22153SOL     OW67899   4.123   3.200   6.377  0.4361 -0.1057  0.0636
22153SOL    HW167900   4.129   3.226   6.469 -0.5916  1.9034 -0.3712
22153SOL    HW267901   4.032   3.216   6.353  0.4743 -1.4094 -1.1060
22154SOL     OW67902   5.084   4.120   2.559  0.2191 -0.0460  0.1171
22154SOL    HW167903   5.081   4.213   2.584  0.5051 -0.2869  1.1367
22154SOL    HW267904   5.176   4.105   2.537  0.6097 -0.5085  1.8475
22155SOL     OW67905   3.729   1.525   2.028  0.0481 -0.2080  0.2048
22155SOL    HW167906   3.689   1.462   1.968 -2.7120  2.0101 -0.5089
22155SOL    HW267907   3.725   1.482   2.114  0.5385 -1.9273 -0.5877
22156SOL     OW67908   3.713   7.076   4.162  0.2458 -0.2728  1.2632
22156SOL    HW167909   3.787   7.029   4.123 -0.5235 -2.4554  2.2723
22156SOL    HW267910   3.685   7.020   4.235 -2.5286  0.3479  0.7913
22157SOL     OW67911   3.667   3.432   5.061 -0.1394 -0.3183  0.4735
22157SOL    HW167912   3.693   3.345   5.031 -1.0347 -0.3859 -0.1358
22157SOL    HW267913   3.685   3.431   5.155 -0.5232 -1.3178  0.5478
22158SOL     OW67914   3.031   0.084   4.422  0.0102  0.9019 -0.5557
22158SOL    HW167915   3.116   0.068   4.462  1.0874  1.4583 -2.4939
22158SOL    HW267916   3.049   0.144   4.350 -1.9030  0.4163 -1.5105
22159SOL     OW67917   6.161   2.586   9.048  0.8120 -0.6586  0.1525
22159SOL    HW167918   6.132   2.566   9.137 -1.2030  0.2150 -0.2649
22159SOL    HW267919   6.245   2.541   9.040  0.2065 -2.2266  1.9030
22160SOL     OW67920   6.832   7.476   0.834  0.3665 -0.1143 -0.0407
22160SOL    HW167921   6.754   7.449   0.786  1.5559 -2.5360 -0.7529
22160SOL    HW267922   6.862   7.555   0.788 -1.3680  0.6286  0.0078
22161SOL     OW67923   7.683   5.086   3.239  0.1179 -0.0951  0.4286
22161SOL    HW167924   7.703   5.146   3.168 -0.3301 -0.0539  0.3323
22161SOL    HW267925   7.684   4.999   3.199  0.0800 -0.0906  0.4180
22162SOL     OW67926   0.383   1.035   1.207 -0.2587  0.1522 -0.1207
22162SOL    HW167927   0.311   1.060   1.149  1.1089  1.4988 -1.3062
22162SOL    HW267928   0.370   1.088   1.285  0.6173  2.0426 -1.2039
22163SOL     OW67929   5.028   4.396  10.538 -0.2910 -0.3323  0.0050
22163SOL    HW167930   5.038   4.311  10.581 -2.0726 -0.7644 -0.3572
22163SOL    HW267931   5.116   4.418  10.507 -0.2188 -3.4470 -2.4835
22164SOL     OW67932   5.341   4.394   8.808  0.0376  0.5301  0.4386
22164SOL    HW167933   5.368   4.413   8.898 -0.8108  1.7702  0.4616
22164SOL    HW267934   5.421   4.368   8.763  0.5287  0.2206  1.4751
22165SOL     OW67935   1.673   6.231   9.054  0.1444 -0.1581  0.2285
22165SOL    HW167936   1.714   6.166   8.997  1.3066  1.0179 -0.3506
22165SOL    HW267937   1.580   6.227   9.033  0.3296 -0.9599 -0.4872
22166SOL     OW67938   3.684   2.053   3.454 -0.6643  0.3384 -0.2987
22166SOL    HW167939   3.773   2.073   3.482 -0.5765  2.4796 -1.8111
22166SOL    HW267940   3.694   1.995   3.379 -0.5884  0.0257 -0.0487
22167SOL     OW67941   1.086   1.018   0.947  0.1618  0.5012 -0.5603
22167SOL    HW167942   1.109   1.048   0.859  0.8951 -0.1489 -0.5968
22167SOL    HW267943   1.061   0.926   0.936  0.1278  0.4532 -0.1118
22168SOL     OW67944   6.715   1.083  10.912 -0.4920 -0.3495  0.5887
22168SOL    HW167945   6.658   1.121  10.979  0.8991  2.8064  0.1533
22168SOL    HW267946   6.750   1.158  10.865  1.5353 -2.3035 -1.2392
22169SOL     OW67947   1.350   4.565   8.090 -0.2143 -0.0590  0.4280
22169SOL    HW167948   1.285   4.568   8.160 -0.8808 -0.1084 -0.1813
22169SOL    HW267949   1.359   4.655   8.060  0.0613 -0.0399  0.5590
22170SOL     OW67950   7.507   3.068   9.176  0.4412 -0.4147 -0.2454
22170SOL    HW167951   7.577   3.013   9.212 -0.9094 -2.2890 -0.3058
22170SOL    HW267952   7.471   3.017   9.104 -0.8375  0.5943 -0.3585
22171SOL     OW67953   1.938   1.625   9.203 -0.0496  0.3315  0.2852
22171SOL    HW167954   1.987   1.705   9.223 -1.4966  1.1871  0.5266
22171SOL    HW267955   1.978   1.558   9.259  0.2656  1.1995  1.1172
22172SOL     OW67956   5.602   2.778   3.114  0.0421 -0.4320 -0.1529
22172SOL    HW167957   5.624   2.709   3.177  0.6222  0.5728  0.7916
22172SOL    HW267958   5.575   2.731   3.036  2.6055 -1.8043 -0.3480
22173SOL     OW67959   1.898   1.600   3.650 -0.1143  0.2093  0.1787
22173SOL    HW167960   1.816   1.555   3.628 -0.4214  1.0402 -0.4334
22173SOL    HW267961   1.902   1.597   3.745 -2.4477  2.8216  0.4997
22174SOL     OW67962   6.167   1.636  10.496 -0.2344 -0.0628 -0.4705
22174SOL    HW167963   6.181   1.547  10.527 -0.2474 -0.1989 -0.8441
22174SOL    HW267964   6.213   1.640  10.412 -0.2609  0.2715 -0.4726
22175SOL     OW67965   2.346   3.259   6.610 -0.0179 -0.5917 -0.1490
22175SOL    HW167966   2.275   3.215   6.563  0.9190 -1.3481 -0.9021
22175SOL    HW267967   2.304   3.295   6.689 -1.2607 -0.8549 -0.6620
22176SOL     OW67968   0.045   7.040   6.407 -0.2085 -0.2980 -0.1393
22176SOL    HW167969  -0.035   7.093   6.404  0.3265  0.8016  2.2281
22176SOL    HW267970   0.094   7.064   6.329 -1.8642 -0.5146 -1.2983
22177SOL     OW67971   7.373   2.295   0.063 -0.4749 -0.2690  0.0573
22177SOL    HW167972   7.376   2.213   0.113  0.8951 -0.1112  0.2695
22177SOL    HW267973   7.363   2.268  -0.028 -2.4074 -0.5783  0.3122
22178SOL     OW67974   7.959   5.289   5.659 -0.5267 -0.0226 -0.4695
22178SOL    HW167975   8.002   5.250   5.735 -0.5650 -1.6108 -1.1984
22178SOL    HW267976   7.869   5.305   5.687 -0.0314  1.3587  0.4254
22179SOL     OW67977   1.131   3.633   5.667 -0.3486 -0.6605 -0.4337
22179SOL    HW167978   1.056   3.578   5.688 -0.7793 -0.4981 -1.4789
22179SOL    HW267979   1.206   3.574   5.671 -0.7476 -1.2270 -1.0840
22180SOL     OW67980   6.392   0.473   7.082  0.2865 -0.0173 -0.0007
22180SOL    HW167981   6.467   0.415   7.067  0.9116  0.1804  2.0911
22180SOL    HW267982   6.327   0.418   7.125 -0.6230 -0.0589 -1.3615
22181SOL     OW67983   5.547   1.342   7.242  0.0757  0.1817 -0.3047
22181SOL    HW167984   5.562   1.379   7.155  0.3230  0.4388 -0.1547
22181SOL    HW267985   5.487   1.402   7.285  0.3154  0.3020 -0.1347
22182SOL     OW67986   2.819   3.738   1.756 -0.0460 -0.3799  0.7414
22182SOL    HW167987   2.865   3.672   1.807  0.4254  0.5365  1.5376
22182SOL    HW267988   2.817   3.816   1.813 -0.8658  0.1976 -0.0373
22183SOL     OW67989   7.314   6.011   6.522  0.5072  0.2211 -0.6806
22183SOL    HW167990   7.237   5.969   6.561 -1.3543  1.2466 -3.0245
22183SOL    HW267991   7.335   5.956   6.447  1.3313  0.6091 -0.7344
22184SOL     OW67992   1.855   0.683   5.443  0.2916 -0.0250 -0.3606
22184SOL    HW167993   1.802   0.720   5.372  1.8063  0.8306 -1.0837
22184SOL    HW267994   1.915   0.623   5.400  0.4453 -0.3810  0.3462
22185SOL     OW67995   5.326   4.789   1.317  0.1069  0.0139  0.0712
22185SOL    HW167996   5.351   4.793   1.224  1.1714 -0.4063  0.3247
22185SOL    HW267997   5.341   4.697   1.341 -0.4558  0.0522  0.5943
22186SOL     OW67998   1.079   6.093   2.249  0.2989  0.4928  0.0893
22186SOL    HW167999   1.136   6.053   2.183 -1.2395 -0.9646 -0.4171
22186SOL    HW268000   1.134   6.100   2.327  0.9572 -1.6836 -0.1214
22187SOL     OW68001   0.133   2.573   4.655 -0.5730 -0.1906 -0.2412
22187SOL    HW168002   0.113   2.505   4.719 -2.0960  1.7463  1.4804
22187SOL    HW268003   0.223   2.598   4.674 -0.7698 -0.1487  0.6964
22188SOL     OW68004   7.668   0.408   6.771  0.1214 -0.4974  0.5167
22188SOL    HW168005   7.576   0.431   6.779 -0.5157 -2.0230 -1.5548
22188SOL    HW268006   7.703   0.466   6.704  0.4096 -0.6123  0.5627
22189SOL     OW68007   6.033   2.428   4.667  0.4422 -0.6421  0.4783
22189SOL    HW168008   6.076   2.421   4.582  0.9167 -1.3995  0.7743
22189SOL    HW268009   6.038   2.340   4.704 -0.2538 -0.4460  1.0551
22190SOL     OW68010   7.849   4.934   5.509 -0.0277  0.1072 -0.5750
22190SOL    HW168011   7.930   4.973   5.474  0.6559 -0.2441  0.5758
22190SOL    HW268012   7.823   4.871   5.442  0.4498  0.4646 -1.1221
22191SOL     OW68013   4.576   7.265   3.956 -0.1482 -0.1269  0.1166
22191SOL    HW168014   4.491   7.225   3.936 -0.0786  0.2972 -1.0831
22191SOL    HW268015   4.561   7.313   4.037 -0.6345 -1.3231  0.7674
22192SOL     OW68016   1.137   6.658   1.937  0.6152 -0.4662 -0.7889
22192SOL    HW168017   1.207   6.711   1.975  0.2204 -1.1670  0.9804
22192SOL    HW268018   1.178   6.616   1.861  2.3292 -1.3533  0.5607
22193SOL     OW68019   7.766   4.497   2.979  0.0349  0.3773 -0.4847
22193SOL    HW168020   7.789   4.492   3.072 -0.0686 -0.7900 -0.5112
22193SOL    HW268021   7.824   4.434   2.937 -0.4915  0.2935 -1.0924
22194SOL     OW68022   3.871   5.506   8.725 -0.0449 -0.0267 -0.3809
22194SOL    HW168023   3.942   5.530   8.665 -0.6949  0.0537 -1.1451
22194SOL    HW268024   3.865   5.411   8.718 -0.5805  0.0491 -0.9839
22195SOL     OW68025   7.748   2.873   9.939  0.0778  0.0039 -0.2833
22195SOL    HW168026   7.778   2.921   9.862  1.4309  0.0128  0.2236
22195SOL    HW268027   7.765   2.781   9.919  0.2005 -0.0156 -0.0940
22196SOL     OW68028   0.675   7.221   3.856  0.2125 -0.3963  0.1622
22196SOL    HW168029   0.695   7.138   3.899  0.9751 -0.3332 -0.0530
22196SOL    HW268030   0.743   7.282   3.887 -0.0807  0.0306 -0.0144
22197SOL     OW68031   2.406   1.872   0.017  0.2631 -0.0469  0.4733
22197SOL    HW168032   2.316   1.870   0.051 -0.4899 -0.1545 -1.3970
22197SOL    HW268033   2.398   1.911  -0.070  1.5800 -2.7427 -0.9715
22198SOL     OW68034   6.583   5.654   9.050 -0.4086 -0.0784 -0.2074
22198SOL    HW168035   6.624   5.657   9.136  0.3999  2.4555 -0.6104
22198SOL    HW268036   6.492   5.628   9.067  0.1803 -1.3645  1.1703
22199SOL     OW68037   6.075   1.389  10.583  0.1814  0.0173 -0.5195
22199SOL    HW168038   6.123   1.345  10.513  0.7414  1.2078 -0.9095
22199SOL    HW268039   5.987   1.400  10.550 -0.4700 -2.3272  0.2589
22200SOL     OW68040   1.336   4.458   3.136  0.6753 -0.2201 -0.1411
22200SOL    HW168041   1.303   4.546   3.119  0.1103 -0.1305  1.3171
22200SOL    HW268042   1.414   4.471   3.189  1.7310 -0.5443 -1.5468
22201SOL     OW68043   0.169   7.085   7.209 -0.1811  0.0722  0.1102
22201SOL    HW168044   0.231   7.142   7.254 -0.2107 -0.5755  1.0168
22201SOL    HW268045   0.138   7.136   7.134  0.3684  0.9379  0.4608
22202SOL     OW68046   3.627   3.430  12.081  0.2153  0.8971  0.0442
22202SOL    HW168047   3.688   3.383  12.025 -1.1026  1.1508 -1.7099
22202SOL    HW268048   3.681   3.493  12.128  1.6591 -0.7260  0.6507
22203SOL     OW68049   5.034   5.198   1.152 -0.5145 -0.2957 -0.0366
22203SOL    HW168050   5.046   5.168   1.062 -0.8088  2.9748 -1.3249
22203SOL    HW268051   5.059   5.123   1.207  0.7705 -2.0348 -2.7939
22204SOL     OW68052   7.076   7.179   6.685  0.3565 -0.0510  0.3944
22204SOL    HW168053   7.121   7.198   6.602  0.3599  0.1538  0.4425
22204SOL    HW268054   6.983   7.179   6.662  0.4245 -1.9867 -0.0169
22205SOL     OW68055   3.235   5.493   9.862  0.2323 -0.1485 -0.0827
22205SOL    HW168056   3.174   5.427   9.896  0.4757 -0.5159 -0.3424
22205SOL    HW268057   3.305   5.498   9.927  0.0693  0.0628  0.0754
22206SOL     OW68058   3.303   4.823   6.241 -0.1088 -0.2058  0.2845
22206SOL    HW168059   3.272   4.851   6.155 -2.2058 -2.3886  0.2303
22206SOL    HW268060   3.367   4.890   6.266 -1.2222  1.8254 -1.8669
22207SOL     OW68061   0.542   1.044   3.206 -0.2872  0.4387  0.4567
22207SOL    HW168062   0.468   1.091   3.167  0.5646  0.2393 -1.5269
22207SOL    HW268063   0.614   1.058   3.144  0.6037 -1.6005  0.9633
22208SOL     OW68064   2.246   2.405   7.982 -0.4182 -0.2459 -0.0780
22208SOL    HW168065   2.267   2.490   7.943 -0.1136 -0.3968 -0.2551
22208SOL    HW268066   2.308   2.396   8.055  1.5083 -1.5089 -1.7313
22209SOL     OW68067   1.125   6.006   3.138  0.4348  0.0594 -0.4437
22209SOL    HW168068   1.068   5.938   3.174  0.5806 -0.0287 -0.3782
22209SOL    HW268069   1.169   5.965   3.064  2.3936 -0.7336  1.0516
22210SOL     OW68070   4.719   7.525   8.019 -0.0586 -0.4418  0.5411
22210SOL    HW168071   4.676   7.604   8.053 -1.1448 -0.7395 -0.0700
22210SOL    HW268072   4.649   7.459   8.018  0.8108 -1.3881  0.9511
22211SOL     OW68073   4.085   5.945   8.508 -0.0420  0.0007 -0.1931
22211SOL    HW168074   4.077   6.000   8.430 -0.9370 -0.6349 -0.5689
22211SOL    HW268075   4.023   5.873   8.493  0.5046 -0.6658  0.6527
22212SOL     OW68076   4.418   0.703   1.807 -0.3227  0.2868 -0.2368
22212SOL    HW168077   4.345   0.756   1.838  1.4231  2.3159  0.6185
22212SOL    HW268078   4.465   0.760   1.747  0.4923 -1.0480 -0.9061
22213SOL     OW68079   2.900   7.192  12.359  0.1590 -0.0339 -0.3071
22213SOL    HW168080   2.919   7.182  12.452  0.5189  1.2006 -0.2227
22213SOL    HW268081   2.892   7.287  12.347 -1.5586 -0.2465 -1.2116
22214SOL     OW68082   2.263   0.049   0.273  0.5872  0.3963 -0.1552
22214SOL    HW168083   2.196   0.070   0.208  1.4201  1.5041 -0.6836
22214SOL    HW268084   2.267   0.126   0.330  0.5648 -0.1612  0.6281
22215SOL     OW68085   7.177   3.936  11.748 -0.1190  0.1556  0.1144
22215SOL    HW168086   7.249   3.998  11.747 -0.3720  0.4597  0.3685
22215SOL    HW268087   7.147   3.932  11.657  0.7219 -0.5739 -0.1351
22216SOL     OW68088   7.313   7.713  11.932 -0.0119 -0.3548  0.2766
22216SOL    HW168089   7.408   7.719  11.940  0.0425 -2.2471  1.5647
22216SOL    HW268090   7.280   7.737  12.019 -0.6932 -0.2666  0.0013
22217SOL     OW68091   1.759   3.884   7.932 -0.0773 -0.1734 -0.0185
22217SOL    HW168092   1.779   3.942   8.005  2.3791 -0.1809 -0.6008
22217SOL    HW268093   1.742   3.943   7.859 -1.2522 -0.1769  0.2440
22218SOL     OW68094   1.896   3.359   6.324  0.0717  0.3573  0.8905
22218SOL    HW168095   1.838   3.296   6.367  0.6471  0.6122  2.0816
22218SOL    HW268096   1.846   3.440   6.322 -1.4442 -0.5004 -2.3882
22219SOL     OW68097   3.487   4.531   0.550 -0.3057 -0.7453  0.2149
22219SOL    HW168098   3.451   4.618   0.531 -0.3446 -0.8393 -0.1544
22219SOL    HW268099   3.515   4.498   0.465 -0.2566 -1.0803  0.3605
22220SOL     OW68100   4.207   3.316  10.956 -0.2610 -0.2264  0.3496
22220SOL    HW168101   4.126   3.320  10.905  1.0796  3.6126 -1.9368
22220SOL    HW268102   4.269   3.269  10.901  0.3443  1.1897 -0.2209
22221SOL     OW68103   2.685   1.287   2.268 -0.2816  0.2477  0.0996
22221SOL    HW168104   2.617   1.228   2.301 -0.8660  0.8338 -0.0427
22221SOL    HW268105   2.639   1.345   2.208  0.4301  0.3838 -0.3175
22222SOL     OW68106   5.491   2.843   1.727 -0.4772 -0.0356 -0.1825
22222SOL    HW168107   5.397   2.859   1.738 -0.6705 -0.3665 -1.2989
22222SOL    HW268108   5.517   2.801   1.810 -1.4739 -0.6434 -0.1479
22223SOL     OW68109   3.939   7.628   1.663  0.3268  0.4930  0.2675
22223SOL    HW168110   3.985   7.613   1.581 -0.5059  1.1993 -0.3563
22223SOL    HW268111   3.877   7.698   1.643 -1.7860 -1.1338  0.7548
22224SOL     OW68112   0.916   7.138   1.894  0.6917  0.2049 -0.2810
22224SOL    HW168113   0.939   7.220   1.850 -1.0799  0.9296  0.0240
22224SOL    HW268114   0.990   7.119   1.951  1.3263  1.3605 -0.6890
22225SOL     OW68115   6.404   6.360   2.282 -0.4591  0.2033 -0.3293
22225SOL    HW168116   6.476   6.323   2.230 -1.4872 -1.4681 -0.6363
22225SOL    HW268117   6.385   6.444   2.239  1.6517  0.9725  0.1196
22226SOL     OW68118   7.176   2.849  10.295 -0.2186  0.1900  0.1334
22226SOL    HW168119   7.203   2.940  10.297 -0.4440  0.2535  0.3956
22226SOL    HW268120   7.125   2.837  10.375  0.9226 -0.5196  0.7883
22227SOL     OW68121   5.428   7.153   7.938  0.0178  0.2670 -0.0192
22227SOL    HW168122   5.442   7.116   7.850  2.2194  0.2960  0.2513
22227SOL    HW268123   5.454   7.245   7.929  3.3154 -0.4036  1.2582
22228SOL     OW68124   4.681   6.982   4.424 -0.1726 -0.5577  0.5184
22228SOL    HW168125   4.732   6.989   4.506 -1.6257  1.0591  1.3394
22228SOL    HW268126   4.604   7.037   4.439 -0.8568 -0.8356 -1.6847
22229SOL     OW68127   6.310   2.048   7.429 -0.0412 -0.5521 -0.1155
22229SOL    HW168128   6.338   2.119   7.371 -1.4669 -0.5418 -0.8449
22229SOL    HW268129   6.378   2.043   7.495  1.4008 -0.2214 -1.5030
22230SOL     OW68130   0.291   7.763   1.038 -0.2366  0.3803  0.2752
22230SOL    HW168131   0.196   7.753   1.045 -0.3105  0.3786 -0.5432
22230SOL    HW268132   0.303   7.849   0.999  0.0447 -0.0224 -0.5591
22231SOL     OW68133   4.725   0.710   5.176  0.2351 -0.1735 -0.0385
22231SOL    HW168134   4.679   0.663   5.106  1.0727 -0.0314 -0.7002
22231SOL    HW268135   4.716   0.803   5.152 -1.7086  0.0952  1.4421
22232SOL     OW68136   3.764   4.801   9.869 -0.2338  0.2934  0.8563
22232SOL    HW168137   3.809   4.716   9.864 -1.8969 -0.6066  0.4799
22232SOL    HW268138   3.818   4.859   9.816  0.0603 -0.9552 -0.2739
22233SOL     OW68139   1.975   0.294   6.433 -0.5194  0.0790 -0.1021
22233SOL    HW168140   2.027   0.217   6.459  0.3240  0.5110 -0.4516
22233SOL    HW268141   2.035   0.368   6.446  0.1168  0.3157 -3.4859
22234SOL     OW68142   4.873   4.713  11.619  0.1602  0.3300  0.1716
22234SOL    HW168143   4.842   4.803  11.606  1.1686  0.7158  0.3848
22234SOL    HW268144   4.793   4.660  11.618 -0.4940  1.2822  0.5458
22235SOL     OW68145   6.393   2.459  10.332  0.8427 -0.3776 -0.3121
22235SOL    HW168146   6.311   2.497  10.364  1.1816  0.2762 -0.1837
22235SOL    HW268147   6.398   2.486  10.240  0.4052 -1.3221 -0.6262
22236SOL     OW68148   0.833   5.395   3.815  0.5976  0.6009  0.5719
22236SOL    HW168149   0.780   5.474   3.826  0.9474  0.9341 -0.0473
22236SOL    HW268150   0.923   5.428   3.809  0.6044  0.3640 -1.5730
22237SOL     OW68151   7.761   1.631   8.842 -0.1258 -0.1794  0.5095
22237SOL    HW168152   7.698   1.673   8.901  0.8265  2.6433 -0.3264
22237SOL    HW268153   7.757   1.538   8.865 -1.6736  0.4366  3.1830
22238SOL     OW68154   5.232   7.709   9.072  0.1693  0.2293 -0.5961
22238SOL    HW168155   5.138   7.706   9.091  0.4624 -0.5701  0.8024
22238SOL    HW268156   5.274   7.696   9.157  1.5965  3.9879 -0.5039
22239SOL     OW68157   7.221   6.384   9.602 -0.0690 -0.4469 -0.1235
22239SOL    HW168158   7.217   6.375   9.507  0.0635  0.3502 -0.2102
22239SOL    HW268159   7.204   6.296   9.635  0.0161 -0.7570 -0.8860
22240SOL     OW68160   0.459   7.852   0.596  0.1279 -1.0121  0.0442
22240SOL    HW168161   0.505   7.871   0.678 -1.8263 -0.8221  1.1709
22240SOL    HW268162   0.395   7.923   0.587  1.0501 -0.3763 -2.3014
22241SOL     OW68163   7.604   2.383  11.048 -0.0598  0.1380 -0.0222
22241SOL    HW168164   7.589   2.451  10.983  0.7732  1.3398  0.9908
22241SOL    HW268165   7.616   2.431  11.130 -2.4615 -1.3553  1.3346
22242SOL     OW68166   3.560   5.030   4.058  0.3723  0.3453  0.1165
22242SOL    HW168167   3.583   5.101   3.998 -1.2408  0.6585 -0.1771
22242SOL    HW268168   3.620   4.959   4.036  0.6729  0.9200 -0.9770
22243SOL     OW68169   4.041   1.734   0.813  0.7358  0.5983 -0.1436
22243SOL    HW168170   4.039   1.733   0.909  0.4773 -1.8200 -0.1063
22243SOL    HW268171   4.047   1.642   0.788  1.9108  1.2192 -2.4633
22244SOL     OW68172   7.863   1.044   5.398  0.2690  0.3121  0.0570
22244SOL    HW168173   7.956   1.065   5.404  0.1689  1.6216 -1.9846
22244SOL    HW268174   7.848   0.982   5.470  2.1797  1.8512  1.9226
22245SOL     OW68175   0.474   4.722   0.080  0.5342 -0.2290 -0.6198
22245SOL    HW168176   0.525   4.800   0.102 -0.9768  0.2567  1.5769
22245SOL    HW268177   0.452   4.683   0.165  1.3096 -3.1556 -1.6292
22246SOL     OW68178   5.417   2.591   6.492 -0.3446 -0.1701  0.8222
22246SOL    HW168179   5.492   2.640   6.525 -0.4160 -0.2849  1.1624
22246SOL    HW268180   5.431   2.502   6.525 -0.0612 -0.4485 -0.0380
22247SOL     OW68181   0.312   3.096   0.929 -0.2238  0.0873  0.1054
22247SOL    HW168182   0.379   3.037   0.895 -1.3319 -0.3086 -1.4828
22247SOL    HW268183   0.230   3.063   0.893 -1.0928  1.5071  0.6968
22248SOL     OW68184   3.708   1.162   0.191 -0.7633 -0.1889 -0.3728
22248SOL    HW168185   3.673   1.251   0.188 -1.9259 -0.6011  0.3532
22248SOL    HW268186   3.662   1.120   0.264  0.5670 -1.0629  0.0069
22249SOL     OW68187   5.194   0.772   2.096 -0.3744 -0.0859 -0.3701
22249SOL    HW168188   5.125   0.720   2.055 -0.9127  0.9672 -0.8388
22249SOL    HW268189   5.148   0.845   2.137  0.2957 -0.3320  0.8797
22250SOL     OW68190   0.556   2.861   1.147  0.8197  0.2139  0.2255
22250SOL    HW168191   0.513   2.852   1.232 -0.5918  0.2888 -0.4661
22250SOL    HW268192   0.648   2.843   1.165  0.2554 -1.6820  1.4205
22251SOL     OW68193   6.935   3.221   4.302 -0.2446  0.0816  0.0216
22251SOL    HW168194   6.954   3.248   4.392  1.1606  1.7859 -0.7209
22251SOL    HW268195   7.006   3.260   4.251 -1.4521 -0.2019 -1.9268
22252SOL     OW68196   1.393   6.929   2.648 -1.0344 -0.2707 -0.4065
22252SOL    HW168197   1.447   6.946   2.725  0.8836 -0.3995 -1.6742
22252SOL    HW268198   1.410   6.838   2.625 -1.0189 -0.0375 -1.3874
22253SOL     OW68199   0.599   3.804  10.848  0.2112  0.0600 -0.3520
22253SOL    HW168200   0.599   3.808  10.752 -0.7765  1.3113 -0.3210
22253SOL    HW268201   0.681   3.846  10.874 -0.0272  0.7186 -0.6356
22254SOL     OW68202   0.048   5.542   8.008  0.9847  0.0655 -0.0506
22254SOL    HW168203   0.090   5.618   8.049 -1.2590  0.6652  1.2892
22254SOL    HW268204   0.023   5.486   8.081  0.5423 -0.8561 -0.8851
22255SOL     OW68205   4.287   6.881   7.353  0.1586 -0.3251 -0.4213
22255SOL    HW168206   4.223   6.821   7.314  2.0932 -2.2869 -0.7454
22255SOL    HW268207   4.244   6.915   7.431 -0.9649 -2.2767 -0.1366
22256SOL     OW68208   4.775   0.233  12.069 -0.5468  0.1732 -0.0842
22256SOL    HW168209   4.698   0.228  12.125 -0.6253 -1.2348 -0.2695
22256SOL    HW268210   4.777   0.148  12.025  0.9273  0.3093 -0.3171
22257SOL     OW68211   4.532   7.762   0.640 -0.1968  0.1836 -0.1177
22257SOL    HW168212   4.598   7.711   0.593 -0.7189  0.1049 -0.7747
22257SOL    HW268213   4.474   7.696   0.679 -0.2746  0.2653 -0.0960
22258SOL     OW68214   0.511   5.304   9.628 -0.2708 -0.4371 -0.6600
22258SOL    HW168215   0.567   5.327   9.702  0.9683 -2.5153 -0.8454
22258SOL    HW268216   0.471   5.220   9.653 -1.5747 -0.0767 -1.4494
22259SOL     OW68217   6.188   1.515   4.316 -0.3272  0.1377 -0.1793
22259SOL    HW168218   6.177   1.539   4.224 -0.9333  1.2357  0.1589
22259SOL    HW268219   6.140   1.433   4.326 -1.5079  0.7635 -0.5373
22260SOL     OW68220   0.045   7.369   8.753 -0.0899 -0.0690 -0.1598
22260SOL    HW168221   0.058   7.325   8.837  1.8542 -0.8120 -0.7969
22260SOL    HW268222  -0.050   7.375   8.743 -0.3882  1.0871  2.5987
22261SOL     OW68223   5.908   2.237   0.452  0.2586  0.1418  0.0835
22261SOL    HW168224   5.843   2.300   0.482 -0.8292 -0.5652 -0.6974
22261SOL    HW268225   5.925   2.182   0.528 -1.0885 -0.4915 -0.0369
22262SOL     OW68226   2.509   6.089   1.250  0.0996  0.3902  0.1229
22262SOL    HW168227   2.514   5.998   1.279 -0.7262  0.0442 -0.7540
22262SOL    HW268228   2.430   6.092   1.196 -0.1933  1.7689  0.6072
22263SOL     OW68229   1.777   1.636   8.123 -0.6624  0.1405  0.5270
22263SOL    HW168230   1.691   1.614   8.159 -0.3825 -0.1141  1.0556
22263SOL    HW268231   1.759   1.667   8.035 -1.4027  1.0552  0.9845
22264SOL     OW68232   4.242   1.448   0.317 -0.2173 -0.6251  0.0695
22264SOL    HW168233   4.267   1.540   0.320 -0.0535 -0.6594  3.2298
22264SOL    HW268234   4.324   1.400   0.334 -0.5737 -1.2703  0.0195
22265SOL     OW68235   7.213   6.775   4.852  0.1281 -0.0447 -0.1544
22265SOL    HW168236   7.200   6.686   4.819  0.1812  0.4760 -1.6662
22265SOL    HW268237   7.133   6.822   4.828  0.7152  0.6860 -0.7530
22266SOL     OW68238   7.422   2.779   8.562  0.0584 -0.5686 -0.1032
22266SOL    HW168239   7.483   2.798   8.491 -0.4086 -1.9310 -0.9078
22266SOL    HW268240   7.347   2.737   8.519 -0.1052 -1.7046  1.1968
22267SOL     OW68241   5.380   5.964   6.151  0.1468  0.0980 -0.0089
22267SOL    HW168242   5.466   6.002   6.134  0.4352 -0.2038  0.7461
22267SOL    HW268243   5.322   6.007   6.088  0.7636  0.6225 -0.2256
22268SOL     OW68244   5.953   2.028  11.056 -0.0307 -0.5701 -0.2026
22268SOL    HW168245   6.016   1.955  11.057 -0.6353 -1.0984  0.3377
22268SOL    HW268246   5.973   2.077  10.976  3.7001  1.5708  1.7138
22269SOL     OW68247   3.602   6.750  10.338 -0.2714  0.7481  0.9779
22269SOL    HW168248   3.512   6.760  10.308 -0.7295 -1.5658  1.3799
22269SOL    HW268249   3.608   6.808  10.414 -1.5155  0.7354  1.1067
22270SOL     OW68250   7.636   4.540   7.693  0.1832  0.0622  0.0532
22270SOL    HW168251   7.543   4.554   7.673  0.0615 -0.2023  0.4115
22270SOL    HW268252   7.662   4.466   7.639  0.7748  1.4754 -1.6960
22271SOL     OW68253   4.418   4.492   5.922 -0.3201 -0.0581  0.2065
22271SOL    HW168254   4.379   4.425   5.867 -0.0008  0.6475 -0.9027
22271SOL    HW268255   4.346   4.554   5.939 -0.2301  0.1101 -0.0291
22272SOL     OW68256   2.525   3.787   2.553 -0.0078 -0.3820  0.1505
22272SOL    HW168257   2.433   3.802   2.531  0.0582  0.8989  0.6723
22272SOL    HW268258   2.522   3.726   2.626 -0.4211 -0.7058 -0.1320
22273SOL     OW68259   5.686   4.696  12.041  0.3166  0.5060  0.2342
22273SOL    HW168260   5.712   4.702  12.133  1.9677  1.1480 -0.2374
22273SOL    HW268261   5.744   4.757  11.995 -1.2571  1.0864 -1.0982
22274SOL     OW68262   3.982   2.035   3.795 -0.5459  0.1748 -0.4640
22274SOL    HW168263   3.988   2.128   3.776 -0.2672  0.2079 -0.2178
22274SOL    HW268264   4.051   2.019   3.859 -0.1336 -0.3334 -1.0269
22275SOL     OW68265   2.271   4.288   0.899 -0.2195  0.1873 -0.0623
22275SOL    HW168266   2.356   4.265   0.935  1.2224  0.1230 -3.1760
22275SOL    HW268267   2.241   4.208   0.856 -2.1526  0.0675  1.3865
22276SOL     OW68268   3.510   0.584   7.654  0.2859 -0.2866 -0.4000
22276SOL    HW168269   3.428   0.558   7.697 -0.4402  1.5130 -0.6281
22276SOL    HW268270   3.579   0.549   7.712 -0.6601  0.6702  1.3975
22277SOL     OW68271   2.207   6.468   9.658 -0.0679  0.1153  0.1182
22277SOL    HW168272   2.211   6.563   9.670  0.0011  0.0721  0.4529
22277SOL    HW268273   2.219   6.455   9.564  1.0065  0.3702  0.2156
22278SOL     OW68274   2.136   1.881   3.275 -0.1123 -0.0205  0.0871
22278SOL    HW168275   2.164   1.827   3.201 -0.6823  0.7975 -0.7622
22278SOL    HW268276   2.042   1.862   3.284  0.0212 -0.3473  0.8030
22279SOL     OW68277   7.880   3.490   4.303 -0.0194 -0.2977  0.1914
22279SOL    HW168278   7.910   3.407   4.265 -0.7611 -1.1948  1.5042
22279SOL    HW268279   7.957   3.546   4.303  0.5882 -1.1098 -0.3663
22280SOL     OW68280   0.058   3.822   8.065 -0.3462  0.2339  0.4237
22280SOL    HW168281  -0.027   3.860   8.091 -0.1613  0.3263  0.9038
22280SOL    HW268282   0.036   3.763   7.993 -0.7134  0.8620  0.0030
22281SOL     OW68283   0.080   3.670   4.764  0.4647  0.3697 -0.5652
22281SOL    HW168284   0.088   3.586   4.719  1.0208  0.5614 -0.8216
22281SOL    HW268285   0.162   3.679   4.813  0.5626  0.9262 -0.8211
22282SOL     OW68286   7.624   4.736   8.004  0.3677 -0.2037 -0.3250
22282SOL    HW168287   7.667   4.666   8.053  1.8497  1.7444  1.3672
22282SOL    HW268288   7.590   4.694   7.926  0.4036 -2.9479  1.0397
22283SOL     OW68289   0.660   4.362   5.735 -0.3430 -0.0482 -0.0958
22283SOL    HW168290   0.719   4.406   5.674 -0.3521 -1.6741 -1.3489
22283SOL    HW268291   0.718   4.313   5.793 -0.3554  1.1088  0.9238
22284SOL     OW68292   1.714   2.594   1.026 -0.0099  0.3593 -0.0843
22284SOL    HW168293   1.796   2.643   1.035  0.9595 -1.1819  0.0665
22284SOL    HW268294   1.711   2.539   1.104 -0.0542 -1.1649 -1.1168
22285SOL     OW68295   6.501   6.569   9.172 -0.1506  0.3286  0.1281
22285SOL    HW168296   6.574   6.621   9.140 -1.1580  1.0120 -1.1497
22285SOL    HW268297   6.537   6.481   9.185  1.3544  1.0886  1.4486
22286SOL     OW68298   4.147   2.111   2.955  0.4546  0.0776 -0.5262
22286SOL    HW168299   4.125   2.018   2.969 -0.4880  0.1019 -1.6939
22286SOL    HW268300   4.094   2.137   2.880  2.3406  0.9826 -1.6108
22287SOL     OW68301   4.260   2.404   0.644  0.0123  0.0068  0.2966
22287SOL    HW168302   4.310   2.362   0.714  0.5299  0.7970  0.4160
22287SOL    HW268303   4.237   2.490   0.680  0.2316  0.3970 -0.4762
22288SOL     OW68304   6.591   5.391   1.989  0.0221 -0.3232  0.3421
22288SOL    HW168305   6.681   5.414   2.011 -0.1522  1.1480 -0.3374
22288SOL    HW268306   6.598   5.311   1.938  1.2048  1.0822 -1.8295
22289SOL     OW68307   7.610   2.357   0.759 -0.1259  0.0977  0.2597
22289SOL    HW168308   7.566   2.440   0.739  1.4498  0.9036 -0.0618
22289SOL    HW268309   7.602   2.348   0.854 -0.9310  0.2440  0.2121
22290SOL     OW68310   2.248   7.231   1.255 -0.2178 -0.2784 -0.0889
22290SOL    HW168311   2.306   7.280   1.197 -1.3545  1.9944  0.5568
22290SOL    HW268312   2.297   7.152   1.277  1.4270  0.1812 -1.7868
22291SOL     OW68313   6.575   6.254   1.193  0.4188 -0.5452  0.3868
22291SOL    HW168314   6.531   6.215   1.269 -2.8773  0.8888 -0.6098
22291SOL    HW268315   6.642   6.311   1.231 -1.6596  0.7603  2.3733
22292SOL     OW68316   1.309   5.016   5.860  0.1316 -0.2614  0.0857
22292SOL    HW168317   1.322   5.027   5.955  0.3808  0.5116 -0.0343
22292SOL    HW268318   1.230   4.962   5.853 -1.4811  1.9023  0.7001
22293SOL     OW68319   6.012   6.279   3.815 -0.0504  0.3094  0.7718
22293SOL    HW168320   6.018   6.283   3.911  0.7011 -0.5782  0.7766
22293SOL    HW268321   6.103   6.281   3.785 -0.2958  1.9439 -0.0167
22294SOL     OW68322   6.091   0.759  10.649  0.0781 -0.8279 -0.1991
22294SOL    HW168323   6.045   0.702  10.587 -2.0384  0.5703 -0.0057
22294SOL    HW268324   6.074   0.720  10.735 -1.0938 -0.1313 -0.0964
22295SOL     OW68325   6.726   7.790   9.115 -0.0190 -0.2362  0.2159
22295SOL    HW168326   6.652   7.847   9.134 -1.2584 -1.1110 -1.6466
22295SOL    HW268327   6.773   7.835   9.044  0.9320  0.0229  0.9820
22296SOL     OW68328   0.539   3.844  12.179 -0.2536  0.1327  0.4152
22296SOL    HW168329   0.624   3.836  12.223 -0.5044 -0.1653  0.8592
22296SOL    HW268330   0.481   3.878  12.247 -0.6914 -0.5092  0.3643
22297SOL     OW68331   7.418   1.887   3.649  0.1248 -0.3902  0.1253
22297SOL    HW168332   7.510   1.890   3.622  0.8889  1.3161  2.6279
22297SOL    HW268333   7.414   1.820   3.717 -0.2230  0.3017  0.8068
22298SOL     OW68334   1.848   1.412   5.927  0.4244  0.3261  0.0596
22298SOL    HW168335   1.811   1.324   5.932  2.2072 -0.4271  0.5271
22298SOL    HW268336   1.787   1.460   5.869 -0.3379 -1.3143 -0.5587
22299SOL     OW68337   5.260   0.982   6.221  0.7412  0.2688 -0.1667
22299SOL    HW168338   5.224   0.959   6.307 -2.0113  2.6775 -0.5038
22299SOL    HW268339   5.247   0.903   6.168 -0.3746 -0.2611  0.8487
22300SOL     OW68340   4.211   0.104   7.904 -0.6296  0.1953  0.7375
22300SOL    HW168341   4.147   0.033   7.896 -0.1796 -0.0518 -0.9144
22300SOL    HW268342   4.165   0.181   7.872 -0.7327  0.4249  1.4234
22301SOL     OW68343   2.671   3.212  12.013 -0.0371  0.1085 -0.0431
22301SOL    HW168344   2.740   3.201  11.947  0.1232  0.7419  0.0144
22301SOL    HW268345   2.696   3.154  12.084 -0.4185 -0.8884 -0.7008
22302SOL     OW68346   0.000   6.667   4.428  0.6811 -0.2941  0.4139
22302SOL    HW168347  -0.007   6.601   4.359 -1.3516  0.6646 -0.4032
22302SOL    HW268348  -0.044   6.629   4.503  2.0551 -0.9611  0.9112
22303SOL     OW68349   6.577   2.430   7.177  0.0362 -0.4377  0.1246
22303SOL    HW168350   6.498   2.484   7.174  0.5803  0.3518 -0.7247
22303SOL    HW268351   6.649   2.493   7.183  0.6087 -1.1463  1.0448
22304SOL     OW68352   6.660   0.320   9.316  0.3007  0.7003 -0.4222
22304SOL    HW168353   6.706   0.270   9.383  0.2923 -0.0078 -0.9398
22304SOL    HW268354   6.716   0.316   9.239 -1.4132 -1.8046 -1.6900
22305SOL     OW68355   3.429   1.470   6.003 -0.0414 -0.3914  0.2245
22305SOL    HW168356   3.370   1.406   6.042  0.2773 -1.5329 -1.0875
22305SOL    HW268357   3.374   1.546   5.985 -0.7172 -0.7827  0.5932
22306SOL     OW68358   1.172   2.274   5.477 -0.6193 -0.1701 -0.3479
22306SOL    HW168359   1.226   2.353   5.475 -0.3147 -0.3894 -0.9635
22306SOL    HW268360   1.139   2.266   5.388 -1.7583  0.0170  0.0380
22307SOL     OW68361   3.513   7.670   0.078  0.1371  0.2809  0.0738
22307SOL    HW168362   3.522   7.578   0.057 -0.2745  0.6229 -1.7854
22307SOL    HW268363   3.419   7.683   0.092  0.2435  0.3390  0.7445
22308SOL     OW68364   6.276   1.702   5.800  0.4798 -0.3276 -0.0489
22308SOL    HW168365   6.230   1.619   5.815 -0.8383  0.2690 -0.6947
22308SOL    HW268366   6.224   1.767   5.848  1.0236  0.2681 -0.2557
22309SOL     OW68367   2.458   5.692   6.963 -0.0507 -0.1030 -0.3307
22309SOL    HW168368   2.496   5.631   7.026  1.8773  2.8006  1.6014
22309SOL    HW268369   2.525   5.703   6.896 -0.5280 -0.3204 -0.8533
22310SOL     OW68370   0.842   3.314   6.060  0.0235  0.4454  0.2912
22310SOL    HW168371   0.811   3.267   6.138  0.7342 -0.5895 -0.0287
22310SOL    HW268372   0.767   3.312   6.000  0.1407 -0.5694  0.1643
22311SOL     OW68373   1.343   0.835   8.262  0.7152  0.5746  0.4451
22311SOL    HW168374   1.268   0.890   8.238 -0.3790 -1.4671 -1.1632
22311SOL    HW268375   1.412   0.860   8.200 -0.4558 -1.1748 -1.6968
22312SOL     OW68376   4.302   7.328   7.104 -0.3176 -0.2256  0.7183
22312SOL    HW168377   4.386   7.295   7.072 -1.0492 -1.6909  0.2015
22312SOL    HW268378   4.299   7.419   7.076  0.5166 -0.5409 -0.4659
22313SOL     OW68379   1.996   4.896   3.422 -0.3439  0.1807 -0.5090
22313SOL    HW168380   1.955   4.967   3.472  0.0072  0.4904 -0.6591
22313SOL    HW268381   1.922   4.846   3.388 -0.5961 -0.3535  0.7489
22314SOL     OW68382   1.184   7.493  10.163 -0.6907  0.4898 -0.4847
22314SOL    HW168383   1.247   7.427  10.192 -0.0369  1.8376  1.2692
22314SOL    HW268384   1.116   7.442  10.117 -0.0180 -1.3565  0.4638
22315SOL     OW68385   5.034   0.342  10.155  0.6039  0.0841 -0.0060
22315SOL    HW168386   4.948   0.377  10.132  0.4915  0.3392  0.7968
22315SOL    HW268387   5.020   0.291  10.234  0.8245 -1.5720 -0.9840
22316SOL     OW68388   3.455   7.027  11.808  0.2597  0.2559  0.5150
22316SOL    HW168389   3.470   7.117  11.836  0.6491 -0.1424  1.6571
22316SOL    HW268390   3.388   6.994  11.869 -3.4695  1.1453 -2.7414
22317SOL     OW68391   4.191   1.608  10.825 -0.6180 -0.2557  0.5329
22317SOL    HW168392   4.128   1.680  10.834 -0.1969  0.3549 -1.1055
22317SOL    HW268393   4.209   1.604  10.732  2.2378 -0.0094  0.9866
22318SOL     OW68394   0.579   4.867   5.488 -0.0677 -0.0584  0.0789
22318SOL    HW168395   0.596   4.951   5.531  2.0879 -0.9761  1.2103
22318SOL    HW268396   0.551   4.809   5.558 -2.6504 -0.0708 -0.8797
22319SOL     OW68397   1.918   4.032   5.190 -0.2916 -0.7448 -0.3382
22319SOL    HW168398   1.960   4.113   5.219 -0.9442 -0.8590  0.9744
22319SOL    HW268399   1.923   4.036   5.094  1.2122  0.0183 -0.2603
22320SOL     OW68400   5.145   7.319   2.993  0.2546  0.0961 -0.6459
22320SOL    HW168401   5.181   7.281   3.073 -1.5799 -0.8490 -0.2192
22320SOL    HW268402   5.186   7.406   2.988  1.1963 -0.2268  0.7297
22321SOL     OW68403   6.778   6.577   1.518  0.5387  0.4680  0.4726
22321SOL    HW168404   6.718   6.644   1.485  0.3747  0.2703  0.3655
22321SOL    HW268405   6.823   6.618   1.592  1.4401  1.1715 -0.4394
22322SOL     OW68406   6.259   7.628   0.990 -0.0181  0.1425 -0.0993
22322SOL    HW168407   6.334   7.678   0.959  2.0253 -1.9542  1.0981
22322SOL    HW268408   6.238   7.666   1.075 -0.8114  1.1670 -0.7298
22323SOL     OW68409   6.114   1.145  11.614 -0.7915  0.3035  0.3721
22323SOL    HW168410   6.026   1.108  11.614 -0.5753 -0.2119  0.5330
22323SOL    HW268411   6.130   1.170  11.705  0.1665 -1.8796  0.8709
22324SOL     OW68412   3.906   0.784  10.835 -0.3821  0.0323 -0.1334
22324SOL    HW168413   3.875   0.794  10.925  0.0867  0.5424 -0.0214
22324SOL    HW268414   4.000   0.797  10.840 -0.1937 -1.0598 -0.5346
22325SOL     OW68415   6.109   6.191   1.982  0.1598  0.8264 -0.3735
22325SOL    HW168416   6.153   6.134   1.918 -0.7753 -1.4631  0.8891
22325SOL    HW268417   6.062   6.255   1.929  0.9254  0.1955 -1.8951
22326SOL     OW68418   1.800   7.599   2.581 -0.0574 -0.0910 -0.1038
22326SOL    HW168419   1.888   7.585   2.547  0.1034  1.8951 -0.6177
22326SOL    HW268420   1.743   7.553   2.519  0.5209 -0.3533 -0.4488
22327SOL     OW68421   0.265   6.925   5.827  0.1566  0.2708 -0.4091
22327SOL    HW168422   0.222   6.842   5.805  0.5433 -0.0740  0.1101
22327SOL    HW268423   0.192   6.986   5.842 -0.1692 -0.3628  0.6850
22328SOL     OW68424   3.675   5.134   1.228  0.5190  0.2662  0.1354
22328SOL    HW168425   3.714   5.066   1.174 -1.0133  0.2967 -1.1143
22328SOL    HW268426   3.653   5.091   1.310 -1.2143 -1.0542 -0.9445
22329SOL     OW68427   4.788   1.754   5.574 -0.1119 -0.7248  0.0803
22329SOL    HW168428   4.785   1.830   5.516  0.0282  0.5788  1.6968
22329SOL    HW268429   4.872   1.711   5.553  1.4543  1.5058  1.3998
22330SOL     OW68430   6.813   2.061   2.340 -0.2884 -0.3498 -0.0003
22330SOL    HW168431   6.726   2.022   2.348  0.7367 -3.2271 -1.3355
22330SOL    HW268432   6.868   2.009   2.399  0.7472  0.6591 -0.0482
22331SOL     OW68433   6.204   2.054  11.268 -0.3179  0.0491 -0.4354
22331SOL    HW168434   6.195   2.001  11.188  2.5291 -0.0431 -0.8064
22331SOL    HW268435   6.254   1.999  11.328 -0.0337  1.1477  0.3675
22332SOL     OW68436   0.740   7.818   3.448  0.1902  0.6528  0.3016
22332SOL    HW168437   0.697   7.752   3.394  0.5776  1.0472 -0.5220
22332SOL    HW268438   0.814   7.772   3.489 -0.3393  0.2540  0.8176
22333SOL     OW68439   5.701   3.624   9.839  0.1469  0.5930  0.0547
22333SOL    HW168440   5.792   3.602   9.861 -0.2004  0.4111  1.3862
22333SOL    HW268441   5.709   3.692   9.772  1.2670  0.9642  0.5319
22334SOL     OW68442   1.375   5.928   5.798 -0.5588 -0.6961  0.0199
22334SOL    HW168443   1.282   5.942   5.812 -0.7055 -1.4922 -0.1133
22334SOL    HW268444   1.383   5.908   5.705 -0.2370 -0.4813  0.0003
22335SOL     OW68445   6.973   6.792   5.626  0.0039 -0.1178  0.0724
22335SOL    HW168446   6.928   6.707   5.628 -1.2206  0.4641 -1.3438
22335SOL    HW268447   7.064   6.771   5.648 -0.3747 -1.7187  0.2442
22336SOL     OW68448   6.497   3.305  11.239  0.6498  0.2550 -0.2970
22336SOL    HW168449   6.564   3.247  11.274  1.7156  1.0687 -0.9232
22336SOL    HW268450   6.523   3.393  11.267 -1.9267  0.3809  2.2353
22337SOL     OW68451   3.936   4.914   5.125  0.0015  0.1763 -0.1200
22337SOL    HW168452   3.886   4.978   5.176  2.6499 -0.5325  3.8402
22337SOL    HW268453   3.873   4.877   5.064 -3.0601  2.4656  1.4007
22338SOL     OW68454   6.533   0.718   1.722 -0.7822 -0.1621  0.4559
22338SOL    HW168455   6.535   0.791   1.784 -2.1509 -2.5019  3.4860
22338SOL    HW268456   6.441   0.706   1.701 -0.3914  0.3122 -1.8805
22339SOL     OW68457   7.540   0.859   5.214  0.2171  0.1475  0.0583
22339SOL    HW168458   7.583   0.797   5.272 -0.7430 -0.9592 -0.3813
22339SOL    HW268459   7.613   0.908   5.173  0.9931 -0.7720  0.3135
22340SOL     OW68460   7.506   3.379  12.174 -0.4819 -0.1765 -0.3630
22340SOL    HW168461   7.421   3.421  12.188 -0.9690 -1.1936 -0.1727
22340SOL    HW268462   7.532   3.407  12.086 -1.3448 -0.4081 -0.7005
22341SOL     OW68463   0.374   7.721   7.366 -0.5351 -0.1239 -0.0934
22341SOL    HW168464   0.426   7.792   7.403 -1.0541  0.3151 -0.1823
22341SOL    HW268465   0.435   7.648   7.356 -0.2631 -0.0646  1.0772
22342SOL     OW68466   7.066   6.426   1.000  0.7777  0.6710  0.4216
22342SOL    HW168467   7.105   6.468   0.923  1.5508 -1.5347 -0.4805
22342SOL    HW268468   6.990   6.379   0.965  0.6239  0.3586  1.1635
22343SOL     OW68469   7.546   0.929   2.464  0.2732 -0.2023 -0.1462
22343SOL    HW168470   7.629   0.882   2.455 -0.2721 -1.2195 -0.0806
22343SOL    HW268471   7.492   0.897   2.392  0.1434  0.9225 -0.5617
22344SOL     OW68472   6.168   4.200   1.171 -0.1973  0.3767 -0.5094
22344SOL    HW168473   6.126   4.115   1.189 -0.2811  0.6335  0.5885
22344SOL    HW268474   6.146   4.254   1.247  2.3988  0.4160  0.3158
22345SOL     OW68475   1.593   4.739   2.120 -0.0987  0.3010  0.7008
22345SOL    HW168476   1.529   4.684   2.165 -1.5873  1.3905  0.0087
22345SOL    HW268477   1.549   4.823   2.108  1.7612  1.3802  0.8992
22346SOL     OW68478   7.398   1.029  10.805 -0.4784  0.9050 -0.4799
22346SOL    HW168479   7.474   0.974  10.786  0.7001  1.4670  2.2396
22346SOL    HW268480   7.330   0.967  10.832 -0.4126  0.5497 -1.0984
22347SOL     OW68481   0.453   4.230   6.232 -0.1748  0.3683  0.6696
22347SOL    HW168482   0.375   4.272   6.195 -0.9628 -1.4225  0.2040
22347SOL    HW268483   0.464   4.150   6.181  2.2278  0.7567  0.4643
22348SOL     OW68484   2.581   5.899   2.285 -0.1104 -0.0515  0.0533
22348SOL    HW168485   2.626   5.861   2.210 -1.4369 -0.3792 -0.5973
22348SOL    HW268486   2.497   5.927   2.251  0.4343  2.6746  0.6997
22349SOL     OW68487   1.362   5.298   8.523  0.2203  0.5372 -0.4524
22349SOL    HW168488   1.375   5.383   8.481 -0.4985  0.9115  0.0598
22349SOL    HW268489   1.347   5.319   8.615  0.7240 -0.2015 -0.1932
22350SOL     OW68490   6.124   7.191  12.366  0.5714 -0.2688  0.2006
22350SOL    HW168491   6.131   7.162  12.457 -2.4166  0.9712  0.9596
22350SOL    HW268492   6.106   7.110  12.317 -1.0897 -0.6057  1.2748
22351SOL     OW68493   7.031   7.183   4.247 -0.2625 -0.0679  0.4697
22351SOL    HW168494   7.035   7.134   4.329  0.0527 -2.8383 -1.0410
22351SOL    HW268495   7.067   7.269   4.267  0.8387 -1.0332  2.9770
22352SOL     OW68496   1.296   7.851  10.389 -0.3524  0.3128  0.5201
22352SOL    HW168497   1.261   7.867  10.476 -1.7340  0.1132  0.0437
22352SOL    HW268498   1.243   7.778  10.355  0.4447  0.1021 -0.3212
22353SOL     OW68499   1.702   5.909   4.216 -0.3001  0.2022  0.1558
22353SOL    HW168500   1.783   5.863   4.197 -0.6362 -0.3354  0.0015
22353SOL    HW268501   1.726   6.002   4.215  0.0308  0.1309 -1.3113
22354SOL     OW68502   1.776   3.736   6.787 -0.3568 -0.6221 -0.1593
22354SOL    HW168503   1.757   3.677   6.859  0.0212  0.3373  0.7592
22354SOL    HW268504   1.870   3.729   6.774 -0.4298 -0.8238 -0.5902
22355SOL     OW68505   4.613   3.086   8.657 -0.4114 -0.3683  0.1152
22355SOL    HW168506   4.587   3.048   8.741 -0.1598  0.2396  0.4682
22355SOL    HW268507   4.639   3.176   8.678  0.5385 -0.5004 -0.4724
22356SOL     OW68508   7.175   3.717   0.644 -0.4824  0.0607  0.2239
22356SOL    HW168509   7.221   3.678   0.570 -0.6685  0.1634  0.0525
22356SOL    HW268510   7.093   3.750   0.607 -1.0802 -0.8600  0.6813
22357SOL     OW68511   3.962   7.507   4.785  0.1270 -0.0607 -0.2010
22357SOL    HW168512   3.928   7.455   4.858 -1.3731  1.3524  0.1730
22357SOL    HW268513   3.942   7.455   4.707  0.1897 -0.7957  0.2597
22358SOL     OW68514   1.035   1.639   1.974  0.5930 -0.0871 -0.1062
22358SOL    HW168515   1.060   1.695   2.047 -1.3334 -0.7575  1.1395
22358SOL    HW268516   1.056   1.550   2.003 -1.1896 -0.4695  0.1786
22359SOL     OW68517   2.401   1.245   4.564 -0.4356 -0.4759 -0.4256
22359SOL    HW168518   2.312   1.211   4.555 -0.3065 -0.6850 -0.9502
22359SOL    HW268519   2.435   1.202   4.643 -1.6164  1.4478  1.2285
22360SOL     OW68520   3.165   0.064   0.039  0.3004  0.5001 -0.1635
22360SOL    HW168521   3.245   0.053  -0.014  1.3053  1.4555  1.0884
22360SOL    HW268522   3.196   0.100   0.122 -1.6168  2.6584 -0.2748
22361SOL     OW68523   4.946   3.429   6.652 -0.5991 -0.4604  0.1255
22361SOL    HW168524   5.036   3.447   6.680 -0.6379  0.6810 -0.4340
22361SOL    HW268525   4.906   3.388   6.728  0.0862  0.0253  0.7686
22362SOL     OW68526   1.900   6.457   2.244  0.3775  0.1786  0.1496
22362SOL    HW168527   1.964   6.420   2.305 -0.2127 -1.5506 -0.2377
22362SOL    HW268528   1.945   6.455   2.159 -0.0377 -0.7216 -0.0630
22363SOL     OW68529   4.330   5.500   6.971 -0.7658 -0.6335  0.2054
22363SOL    HW168530   4.262   5.435   6.953  0.2680 -2.3046  2.0323
22363SOL    HW268531   4.399   5.452   7.016  0.8258  1.3974  0.0860
22364SOL     OW68532   0.808   5.814  10.885  0.7471  0.3508  0.3561
22364SOL    HW168533   0.813   5.748  10.816  0.8902  1.2515 -0.5229
22364SOL    HW268534   0.777   5.766  10.962 -1.1066 -0.3321 -0.7646
22365SOL     OW68535   4.174   3.531   5.321  0.5532 -0.2566 -0.1759
22365SOL    HW168536   4.231   3.589   5.272 -0.1870  0.7672  0.1337
22365SOL    HW268537   4.085   3.564   5.304  0.2611  0.0238  1.6772
22366SOL     OW68538   0.286   6.675   6.333  0.4831  0.3865 -0.1133
22366SOL    HW168539   0.205   6.706   6.293  0.8582  0.4307 -0.8425
22366SOL    HW268540   0.318   6.607   6.274 -0.2699 -1.3881  1.3881
22367SOL     OW68541   5.807   1.788   4.446 -0.0667 -0.4117  0.0669
22367SOL    HW168542   5.770   1.707   4.413  2.3178 -1.2730 -0.6784
22367SOL    HW268543   5.830   1.769   4.537  0.8759 -0.7437 -0.2290
22368SOL     OW68544   4.721   5.497   6.949  0.1533 -0.0051  0.2441
22368SOL    HW168545   4.673   5.428   6.995  1.0437  0.2151  1.5381
22368SOL    HW268546   4.690   5.491   6.858 -0.7358 -1.2458  0.6069
22369SOL     OW68547   3.411   1.418   7.297 -0.3638  0.0656 -0.2220
22369SOL    HW168548   3.506   1.409   7.289  0.2554  2.4659  2.3997
22369SOL    HW268549   3.392   1.388   7.386 -1.8012  0.9512 -0.1967
22370SOL     OW68550   6.117   0.991  12.305 -0.2614 -0.0212  0.0874
22370SOL    HW168551   6.092   0.936  12.379 -1.1966  0.6084  0.2514
22370SOL    HW268552   6.085   1.079  12.328  1.5300  0.7029  0.0101
22371SOL     OW68553   1.857   4.903   9.738  0.1494  0.1556  0.2656
22371SOL    HW168554   1.846   4.832   9.802 -0.5287  1.0777  1.2096
22371SOL    HW268555   1.803   4.974   9.773  0.8694  1.1580 -0.6304
22372SOL     OW68556   7.424   3.540  11.670 -0.0093  0.0828  0.3935
22372SOL    HW168557   7.441   3.626  11.632  2.0001 -0.1719  0.6459
22372SOL    HW268558   7.449   3.477  11.603 -1.2336 -0.3473  0.3007
22373SOL     OW68559   3.394   3.879   1.596  0.2609 -0.1852  0.2593
22373SOL    HW168560   3.392   3.961   1.645 -0.6254  0.0048 -0.0733
22373SOL    HW268561   3.440   3.817   1.653 -0.5002  0.1034  1.1949
22374SOL     OW68562   5.996   3.339   7.645  0.2664  0.5528  0.2196
22374SOL    HW168563   5.987   3.431   7.619  0.4781  1.3633  2.6790
22374SOL    HW268564   5.986   3.341   7.740  1.6239 -1.8013  0.4807
22375SOL     OW68565   1.306   7.387   9.438 -0.3190  0.5293  0.1062
22375SOL    HW168566   1.270   7.391   9.350 -1.2694 -1.3736  0.3317
22375SOL    HW268567   1.299   7.476   9.472 -3.1860  0.6603 -0.5599
22376SOL     OW68568   7.566   1.829   8.517  0.1620  0.0264 -0.0890
22376SOL    HW168569   7.493   1.876   8.558  0.1063 -0.5684  0.5091
22376SOL    HW268570   7.580   1.875   8.434 -1.8972 -0.7703 -0.9485
22377SOL     OW68571   3.563   5.073   6.944  0.2893 -0.1671  0.0430
22377SOL    HW168572   3.570   5.033   7.031 -0.1933 -0.8225 -0.2106
22377SOL    HW268573   3.494   5.140   6.954  1.0599  0.5928  0.4529
22378SOL     OW68574   0.728   4.060   8.717 -0.1540 -0.0199 -0.4561
22378SOL    HW168575   0.762   3.972   8.702 -0.5645 -0.0668 -1.1668
22378SOL    HW268576   0.636   4.054   8.694 -0.6863  0.0995  1.4520
22379SOL     OW68577   7.893   5.408  11.785 -0.3318  0.0563 -0.0979
22379SOL    HW168578   7.980   5.438  11.759 -0.5957  0.7103 -0.2344
22379SOL    HW268579   7.866   5.468  11.853 -0.8519  0.1102 -0.3494
22380SOL     OW68580   6.567   2.113   9.370 -0.5482  0.1051 -0.3794
22380SOL    HW168581   6.601   2.024   9.366 -0.1987  0.0104  2.6077
22380SOL    HW268582   6.474   2.103   9.388 -0.6518  0.3641 -0.7574
22381SOL     OW68583   6.471   2.293   2.931 -0.1824  0.4359  0.2082
22381SOL    HW168584   6.505   2.378   2.958 -1.9217  1.4848 -0.7108
22381SOL    HW268585   6.545   2.233   2.942  0.5405  1.6385  2.7842
22382SOL     OW68586   1.899   7.657   3.198 -0.0937 -0.0677 -0.1366
22382SOL    HW168587   1.958   7.584   3.179 -1.6817 -1.5707  0.4785
22382SOL    HW268588   1.914   7.677   3.291 -0.0411  0.0308 -0.1661
22383SOL     OW68589   7.886   6.249   5.870  0.1812 -0.4078  0.3490
22383SOL    HW168590   7.884   6.206   5.784  1.5668  0.6626 -0.2731
22383SOL    HW268591   7.939   6.192   5.925  0.1182 -0.6077  0.2027
22384SOL     OW68592   1.018   0.630   0.561  0.6688  0.1808 -0.6012
22384SOL    HW168593   0.940   0.643   0.506  0.0189 -1.0217 -0.0013
22384SOL    HW268594   1.077   0.579   0.505  0.7706  0.5595 -0.8400
22385SOL     OW68595   6.143   1.060  11.276  0.3910  0.4189 -0.1670
22385SOL    HW168596   6.054   1.094  11.277  0.0207 -0.4417 -1.1349
22385SOL    HW268597   6.135   0.971  11.310  1.1743  0.8888  1.3516
22386SOL     OW68598   1.427   3.550   0.629 -0.1433 -0.6971  0.4378
22386SOL    HW168599   1.378   3.619   0.673 -0.3658 -1.0693  0.7787
22386SOL    HW268600   1.359   3.488   0.599 -0.0855 -0.0318 -1.1933
22387SOL     OW68601   6.353   6.113   0.985 -0.1608  0.0180 -0.0611
22387SOL    HW168602   6.412   6.185   0.962 -1.6864  1.8118  1.4436
22387SOL    HW268603   6.398   6.067   1.056 -0.7050  1.6718  1.4203
22388SOL     OW68604   1.458   4.424  10.784 -0.1292 -0.6119  0.6462
22388SOL    HW168605   1.479   4.486  10.715 -0.6067  1.7071  2.4560
22388SOL    HW268606   1.518   4.446  10.855 -1.4931 -1.0479  1.9742
22389SOL     OW68607   3.942   2.567   5.350  0.2589  0.4253 -1.2120
22389SOL    HW168608   3.992   2.486   5.344 -1.7298 -0.7813 -2.6371
22389SOL    HW268609   3.881   2.564   5.276 -0.9185  2.4930 -0.4288
22390SOL     OW68610   5.257   7.250   0.569 -0.2631 -0.5030  0.4719
22390SOL    HW168611   5.269   7.169   0.619 -1.9788  0.1775  2.1211
22390SOL    HW268612   5.329   7.306   0.599  0.5021 -1.1354 -0.1299
22391SOL     OW68613   2.291   1.010   8.114  0.7783 -0.4148 -0.4588
22391SOL    HW168614   2.279   1.021   8.019  1.4890  0.8314 -0.4356
22391SOL    HW268615   2.336   0.926   8.123  0.4707 -0.6673 -1.2113
22392SOL     OW68616   1.083   1.834   7.611  0.0417 -0.1053  0.4244
22392SOL    HW168617   0.992   1.840   7.639 -0.0939 -0.8743  0.1797
22392SOL    HW268618   1.120   1.765   7.667 -0.0848 -1.2602 -0.8502
22393SOL     OW68619   5.970   7.185  11.315 -0.2680 -0.3416  0.1354
22393SOL    HW168620   5.878   7.161  11.309 -0.2674 -0.0194 -1.8759
22393SOL    HW268621   5.970   7.271  11.358 -1.0710  0.3900 -1.2565
22394SOL     OW68622   6.538   4.269   9.603  0.3017 -0.4248 -0.0441
22394SOL    HW168623   6.525   4.341   9.541  0.7981 -1.4362 -1.3867
22394SOL    HW268624   6.472   4.204   9.578  1.4831 -1.4883 -0.5674
22395SOL     OW68625   5.920   5.471   7.485  0.5175  0.1475 -0.1824
22395SOL    HW168626   5.859   5.408   7.445 -0.3793 -0.7326  2.3595
22395SOL    HW268627   5.887   5.556   7.459  0.6371 -0.3659 -2.1576
22396SOL     OW68628   5.764   5.429   1.227  0.0197  0.0394 -0.3465
22396SOL    HW168629   5.840   5.372   1.239 -0.8513 -1.1289 -0.1650
22396SOL    HW268630   5.801   5.514   1.201  1.3959 -0.3368  0.3043
22397SOL     OW68631   1.736   0.056   9.465 -0.7299 -0.1082  0.3125
22397SOL    HW168632   1.720   0.109   9.544 -0.9211  0.0305  0.1803
22397SOL    HW268633   1.794  -0.014   9.495 -2.2809 -1.1452  1.0010
22398SOL     OW68634   1.247   3.792  11.365 -0.2775  0.0289  0.1857
22398SOL    HW168635   1.341   3.788  11.385 -0.2596  0.7219  0.2431
22398SOL    HW268636   1.242   3.792  11.270 -0.2140  0.1633  0.1831
22399SOL     OW68637   4.349   3.319   9.468  0.2417  0.2585  0.5351
22399SOL    HW168638   4.313   3.381   9.532 -0.5106 -1.7872  2.1754
22399SOL    HW268639   4.440   3.306   9.496  0.0555 -0.2691  0.8914
22400SOL     OW68640   0.643   1.446   0.367  0.2039 -0.4016  0.4774
22400SOL    HW168641   0.699   1.390   0.420 -1.2968 -0.6569  1.8834
22400SOL    HW268642   0.618   1.392   0.292 -0.9022 -1.5452  1.6137
22401SOL     OW68643   1.192   3.239   6.773 -0.0846 -0.8646  0.0087
22401SOL    HW168644   1.149   3.288   6.703  0.7832 -1.2250 -0.8039
22401SOL    HW268645   1.257   3.185   6.728  0.2525 -1.3687  1.0640
22402SOL     OW68646   0.926   6.987   9.256 -0.0187  0.1452  0.3642
22402SOL    HW168647   1.000   6.954   9.204  0.4375  0.7785  0.6018
22402SOL    HW268648   0.926   6.931   9.334 -0.7944 -0.9022 -0.3498
22403SOL     OW68649   5.066   7.484  10.146 -0.4127  0.5437 -0.1288
22403SOL    HW168650   5.073   7.485  10.241 -1.4193  1.2914 -0.0549
22403SOL    HW268651   5.019   7.564  10.124 -2.1066 -0.6490 -1.0934
22404SOL     OW68652   5.689   1.963   0.525 -0.0340 -0.0170 -0.4063
22404SOL    HW168653   5.709   1.869   0.522  0.4970  0.1122 -1.3047
22404SOL    HW268654   5.597   1.966   0.551 -0.8628 -0.9439 -2.8935
22405SOL     OW68655   7.786   1.144   5.140 -0.3650 -0.0337  0.0021
22405SOL    HW168656   7.812   1.235   5.159 -0.3183 -0.3275  1.4990
22405SOL    HW268657   7.801   1.098   5.223  1.2398 -1.7869 -1.1938
22406SOL     OW68658   0.908   2.605   1.668 -0.1507 -0.1804 -0.3334
22406SOL    HW168659   0.935   2.696   1.677 -0.8443  0.7155 -5.0395
22406SOL    HW268660   0.823   2.609   1.624 -1.4735 -3.1562  1.6319
22407SOL     OW68661   7.358   7.788   1.309  0.1197 -0.0203  0.2209
22407SOL    HW168662   7.341   7.718   1.246  1.4056 -1.7892  1.7342
22407SOL    HW268663   7.344   7.869   1.259 -3.0535 -1.2623 -1.1632
22408SOL     OW68664   2.922   6.800   7.139  0.2350  0.6166  0.0413
22408SOL    HW168665   2.898   6.892   7.123  0.2171  0.6196  0.0869
22408SOL    HW268666   2.874   6.776   7.218  0.1464  0.5316 -0.0381
22409SOL     OW68667   5.314   2.445   8.498  0.2056 -0.2380  0.2855
22409SOL    HW168668   5.389   2.472   8.551  0.6260 -0.6518 -0.0850
22409SOL    HW268669   5.281   2.526   8.460  1.1946 -0.1830 -0.4878
22410SOL     OW68670   6.289   2.408   1.199 -0.0489  0.1188  0.3803
22410SOL    HW168671   6.305   2.481   1.139 -0.2974 -0.3468 -0.2663
22410SOL    HW268672   6.203   2.426   1.237 -1.8791 -1.6484 -2.5611
22411SOL     OW68673   3.581   6.209   1.908 -0.4393  0.3279  0.5660
22411SOL    HW168674   3.571   6.277   1.842 -1.8585 -0.1678  0.2383
22411SOL    HW268675   3.529   6.239   1.983  1.4647  1.0759  1.6663
22412SOL     OW68676   1.701   6.695  12.161  0.0499 -0.1549 -0.1701
22412SOL    HW168677   1.669   6.606  12.179  1.8458 -0.6157  0.9669
22412SOL    HW268678   1.659   6.749  12.229  2.3466 -0.9408  2.0171
22413SOL     OW68679   3.445   7.469  11.262  0.0570  0.3125  0.0208
22413SOL    HW168680   3.521   7.413  11.279  0.4270  0.8420  0.1284
22413SOL    HW268681   3.374   7.429  11.312 -0.0113 -0.8116 -0.9363
22414SOL     OW68682   5.528   2.061   0.920 -0.6626 -0.0196 -0.2833
22414SOL    HW168683   5.507   2.154   0.909  0.5143  0.6110  2.0840
22414SOL    HW268684   5.508   2.022   0.835  0.2260  2.6532 -1.8689
22415SOL     OW68685   0.281   3.054   0.588 -0.5697  0.1046 -0.5163
22415SOL    HW168686   0.245   3.103   0.513  1.2119 -2.1452 -3.0103
22415SOL    HW268687   0.203   3.020   0.633 -1.7163  0.0027 -2.4416
22416SOL     OW68688   6.789   6.853   8.137 -0.3358 -0.1931 -0.3792
22416SOL    HW168689   6.708   6.904   8.131  1.1168  2.5063  0.9306
22416SOL    HW268690   6.858   6.919   8.140  1.7954 -2.3321  0.5089
22417SOL     OW68691   2.369   0.111   8.814  0.3876 -0.4005 -0.5077
22417SOL    HW168692   2.392   0.203   8.826  0.7631 -0.5390 -0.1313
22417SOL    HW268693   2.379   0.073   8.901 -1.8675 -0.3574 -0.1634
22418SOL     OW68694   4.379   6.001   1.359 -0.0805  0.8093  0.2525
22418SOL    HW168695   4.303   6.026   1.411  0.3881  0.2279  1.2635
22418SOL    HW268696   4.451   6.054   1.394  0.3186  0.1450  0.4746
22419SOL     OW68697   0.018   6.479   7.540 -0.2364  0.4503  0.4365
22419SOL    HW168698  -0.070   6.508   7.561 -0.5286 -0.7757  1.0195
22419SOL    HW268699   0.007   6.387   7.516  1.2186 -0.6565  3.4717
22420SOL     OW68700   2.582   3.607   9.230  0.2105 -0.4024 -0.4650
22420SOL    HW168701   2.540   3.542   9.174 -1.7913  0.5405 -0.1422
22420SOL    HW268702   2.596   3.683   9.172  0.1440 -0.2052 -0.2238
22421SOL     OW68703   0.255   0.944   5.160 -0.2469 -0.2561 -0.4371
22421SOL    HW168704   0.221   0.971   5.246 -1.9784  0.9556 -1.4475
22421SOL    HW268705   0.232   0.852   5.153 -1.9001  0.1257 -0.3960
22422SOL     OW68706   4.413   6.506   0.850  0.1685 -0.4201 -0.4094
22422SOL    HW168707   4.503   6.504   0.820  0.2479  2.0913 -0.5218
22422SOL    HW268708   4.409   6.580   0.911 -1.4029 -1.6012  1.0271
22423SOL     OW68709   6.775   7.838   0.615  0.8736 -0.0082 -0.4731
22423SOL    HW168710   6.856   7.819   0.568  1.3881  0.2804  0.2886
22423SOL    HW268711   6.790   7.808   0.704  0.0304 -0.2251 -0.3966
22424SOL     OW68712   7.226   2.504  10.501  0.6245  0.4790 -0.2127
22424SOL    HW168713   7.268   2.462  10.575  1.2313  0.5713 -0.4940
22424SOL    HW268714   7.255   2.595  10.506  1.2742  0.3318 -0.9687
22425SOL     OW68715   5.619   0.477   6.804  0.2001 -0.0793 -0.3869
22425SOL    HW168716   5.602   0.462   6.711  0.6700 -1.0691 -0.3257
22425SOL    HW268717   5.564   0.552   6.827 -0.7735 -0.5199 -1.1963
22426SOL     OW68718   0.509   6.241   4.670  0.2053  0.4199 -0.3991
22426SOL    HW168719   0.449   6.299   4.623  0.7441  1.3583  0.0616
22426SOL    HW268720   0.573   6.215   4.604 -0.9156 -0.9538 -1.0186
22427SOL     OW68721   1.225   1.209   7.805  0.4716 -0.4994  0.0597
22427SOL    HW168722   1.183   1.166   7.730  1.5932  1.3568 -1.7269
22427SOL    HW268723   1.205   1.302   7.793  0.8179 -0.1302  2.0170
22428SOL     OW68724   5.315   1.056   1.212  0.3953 -0.0409 -0.0799
22428SOL    HW168725   5.297   1.033   1.121  0.3070 -0.8140  0.1230
22428SOL    HW268726   5.400   1.100   1.210  1.8226 -2.6062 -0.2148
22429SOL     OW68727   7.905   7.193   4.545  0.2498  0.1397  0.7905
22429SOL    HW168728   7.978   7.249   4.572 -0.2600  0.2901  1.8552
22429SOL    HW268729   7.917   7.112   4.595 -0.3400  0.1832  1.0055
22430SOL     OW68730   7.877   5.261   1.515  0.1050  0.3020  0.1636
22430SOL    HW168731   7.929   5.198   1.565  0.6712  1.8449  1.5994
22430SOL    HW268732   7.942   5.312   1.466 -0.4040 -0.8197 -1.8057
22431SOL     OW68733   1.962   6.107   2.623 -0.1174 -0.4182  0.1589
22431SOL    HW168734   1.867   6.119   2.627  0.0231  0.3151  1.8788
22431SOL    HW268735   1.984   6.061   2.704  1.2991  1.8338  1.1579
22432SOL     OW68736   7.116   0.369  11.604 -0.0047 -0.3456 -0.4155
22432SOL    HW168737   7.082   0.423  11.676 -0.3488 -0.7707 -0.2540
22432SOL    HW268738   7.107   0.424  11.526  4.0253  1.7302  0.3082
22433SOL     OW68739   6.632   7.114   0.688  0.0791 -0.4739  0.2237
22433SOL    HW168740   6.682   7.081   0.762 -1.6795 -0.0350  1.6848
22433SOL    HW268741   6.694   7.169   0.639  1.8226 -2.3829  0.1840
22434SOL     OW68742   7.758   4.411   4.231 -0.3790  0.0101  0.0583
22434SOL    HW168743   7.679   4.375   4.191 -0.8511  0.3412  0.6814
22434SOL    HW268744   7.731   4.438   4.319  0.1090  1.2885 -0.1576
22435SOL     OW68745   3.371   2.095   9.821 -0.3578  0.2008 -0.3155
22435SOL    HW168746   3.385   2.189   9.814  1.0641  0.0967  0.6997
22435SOL    HW268747   3.440   2.056   9.767  0.5771 -0.2614  1.1341
22436SOL     OW68748   0.856   3.695   3.200 -0.1941  0.1574  0.2678
22436SOL    HW168749   0.920   3.732   3.260  1.2785 -0.1605 -1.0515
22436SOL    HW268750   0.901   3.621   3.158 -1.7806 -0.7572  0.0607
22437SOL     OW68751   6.322   3.786   6.146 -0.1269 -0.1315  0.1246
22437SOL    HW168752   6.415   3.765   6.134 -0.4555 -1.3527 -0.4831
22437SOL    HW268753   6.277   3.724   6.089 -1.3407  0.1704  0.7368
22438SOL     OW68754   2.842   7.352  10.978 -0.1264 -0.1764  0.8042
22438SOL    HW168755   2.882   7.326  11.061 -0.5349  1.0801  1.4256
22438SOL    HW268756   2.818   7.270  10.936  1.4969 -0.9042  1.2025
22439SOL     OW68757   4.459   6.467   0.497  0.2990 -0.3362  0.0812
22439SOL    HW168758   4.535   6.482   0.553  1.0792  0.9116 -1.2302
22439SOL    HW268759   4.485   6.396   0.439  1.5248  1.7091 -2.0337
22440SOL     OW68760   3.104   2.766   4.568  0.1051  0.0009  0.3842
22440SOL    HW168761   3.150   2.769   4.652 -0.2090  1.5455  0.5283
22440SOL    HW268762   3.060   2.681   4.568  0.8985 -0.4328  1.3480
22441SOL     OW68763   5.136   1.666   0.281 -0.5246  0.3187 -0.3956
22441SOL    HW168764   5.191   1.588   0.275 -0.0330  0.6514 -0.3092
22441SOL    HW268765   5.047   1.632   0.283 -0.3000 -0.2699  0.1244
22442SOL     OW68766   7.297   1.799   3.020  0.2844 -0.2363 -0.2900
22442SOL    HW168767   7.340   1.730   2.970  0.7429 -1.1543  1.3221
22442SOL    HW268768   7.235   1.754   3.076 -0.3743  0.7943 -0.1616
22443SOL     OW68769   1.413   1.174  10.803 -0.1552  0.0739 -0.0620
22443SOL    HW168770   1.328   1.137  10.779  0.3497 -0.8520 -0.4909
22443SOL    HW268771   1.458   1.103  10.850  0.5892  0.3564 -0.3252
22444SOL     OW68772   0.483   6.877   6.002 -0.2655 -0.0935  0.1940
22444SOL    HW168773   0.514   6.797   5.959 -0.8592 -1.0755  1.5228
22444SOL    HW268774   0.397   6.893   5.964 -1.1737 -1.4606  1.5656
22445SOL     OW68775   3.308   2.531   5.893 -0.1845 -0.2655 -0.1827
22445SOL    HW168776   3.282   2.453   5.845 -0.8338 -1.5310  2.0884
22445SOL    HW268777   3.283   2.514   5.984 -1.5261  3.1084  0.2532
22446SOL     OW68778   6.856   5.151   0.502 -0.1590 -0.0782 -0.4898
22446SOL    HW168779   6.859   5.105   0.418 -1.4873 -0.6306 -0.2532
22446SOL    HW268780   6.784   5.212   0.494 -1.4888 -1.3743  0.8331
22447SOL     OW68781   5.553   2.714   4.594 -0.0490  0.2475  0.1747
22447SOL    HW168782   5.573   2.664   4.673  2.1161  0.2151 -0.3370
22447SOL    HW268783   5.543   2.804   4.625  0.9218  0.2579  0.4881
22448SOL     OW68784   2.810   0.865  10.980  0.2233 -0.2337 -0.5269
22448SOL    HW168785   2.824   0.922  10.905  3.0876  1.7849  1.3092
22448SOL    HW268786   2.796   0.925  11.054 -0.9839 -2.0769  0.8373
22449SOL     OW68787   1.426   1.270   2.977  0.0993  0.2964 -0.0587
22449SOL    HW168788   1.371   1.277   2.899 -0.6659  1.5343  0.5628
22449SOL    HW268789   1.377   1.212   3.036  1.4803 -2.0810 -1.1024
22450SOL     OW68790   5.474   1.850   7.191  0.1218  0.0652  0.1013
22450SOL    HW168791   5.529   1.779   7.158  0.6196  0.8138 -0.6839
22450SOL    HW268792   5.469   1.913   7.120  0.5624  1.3337  1.1557
22451SOL     OW68793   6.241   0.196  10.280  0.1120 -0.4373 -0.6646
22451SOL    HW168794   6.310   0.131  10.266  1.0544  0.4010  0.0085
22451SOL    HW268795   6.206   0.213  10.192  2.4069  0.9168 -1.3858
22452SOL     OW68796   0.646   5.861   2.384  0.4018  0.0948 -0.0107
22452SOL    HW168797   0.660   5.803   2.459  1.8273  1.6040  0.9380
22452SOL    HW268798   0.561   5.834   2.349  0.4338 -1.6961  1.1716
22453SOL     OW68799   6.195   4.055  11.476 -0.1753 -0.0486  0.2592
22453SOL    HW168800   6.152   4.009  11.404 -0.9351  0.2737  0.4936
22453SOL    HW268801   6.132   4.051  11.548  0.1054  0.6059  0.5500
22454SOL     OW68802   6.729   4.044   7.611 -0.4832  0.3315 -0.0760
22454SOL    HW168803   6.762   4.126   7.647  0.5261 -0.1305  0.0916
22454SOL    HW268804   6.636   4.044   7.630 -0.0309  0.1920  2.3880
22455SOL     OW68805   2.315   6.586   8.506 -0.8600 -0.0549 -0.5750
22455SOL    HW168806   2.358   6.636   8.575 -2.2072 -1.0433  1.0655
22455SOL    HW268807   2.303   6.649   8.434  0.7045  0.9655  0.0115
22456SOL     OW68808   7.011   7.002   8.076  0.3776  0.0118 -0.5273
22456SOL    HW168809   7.037   6.946   8.003  1.4763 -0.1471 -0.0372
22456SOL    HW268810   7.091   7.050   8.099  0.1637 -0.2332  0.8194
22457SOL     OW68811   4.388   0.285   1.686 -0.1489  0.1372 -0.7187
22457SOL    HW168812   4.375   0.221   1.756  0.3038  0.4944 -0.2964
22457SOL    HW268813   4.482   0.299   1.684 -0.2236  0.6165 -0.9617
22458SOL     OW68814   5.568   7.536  10.439 -0.4081 -0.3594 -0.1669
22458SOL    HW168815   5.489   7.499  10.400 -0.6395 -0.7422  0.6481
22458SOL    HW268816   5.628   7.461  10.447 -0.5629 -0.3906  0.7025
22459SOL     OW68817   7.735   3.605   3.276  0.4656 -0.6905  0.2231
22459SOL    HW168818   7.702   3.681   3.228  1.3275 -0.6779 -0.3802
22459SOL    HW268819   7.800   3.566   3.217  0.5568 -1.4779  0.8236
22460SOL     OW68820   1.227   1.569   5.935 -0.4108 -0.1076 -0.4215
22460SOL    HW168821   1.191   1.517   5.863 -0.0684  1.4146 -1.7470
22460SOL    HW268822   1.152   1.614   5.974 -0.5914 -0.9071  0.1887
22461SOL     OW68823   5.516   4.285  11.646 -0.7706 -0.3414  0.0556
22461SOL    HW168824   5.563   4.367  11.631  1.2639 -1.3559  0.5241
22461SOL    HW268825   5.496   4.252  11.559 -0.2639 -0.0681 -0.1685
22462SOL     OW68826   4.793   5.342   5.845 -0.1160 -0.5867 -0.2358
22462SOL    HW168827   4.850   5.415   5.869 -1.7073  0.4492  0.5045
22462SOL    HW268828   4.809   5.330   5.751 -1.1085  1.9210 -0.8053
22463SOL     OW68829   0.311   3.011   3.727 -0.5069 -0.1612  0.4027
22463SOL    HW168830   0.339   2.919   3.722  0.7344  0.2384 -0.2859
22463SOL    HW268831   0.392   3.061   3.720 -1.0812  0.9868  1.6409
22464SOL     OW68832   6.649   3.997   3.579 -0.4443  0.4357 -0.2888
22464SOL    HW168833   6.738   4.026   3.596 -0.0629  0.9507 -2.7597
22464SOL    HW268834   6.656   3.902   3.570 -0.1631  0.4608 -0.3335
22465SOL     OW68835   6.243   5.635   5.817  0.3812  0.2852 -0.2172
22465SOL    HW168836   6.239   5.722   5.777 -1.5652 -0.1128 -1.0242
22465SOL    HW268837   6.185   5.581   5.762  0.9821 -1.3497  0.6800
22466SOL     OW68838   6.801   5.514   5.372 -0.2953  0.4232 -0.5627
22466SOL    HW168839   6.769   5.424   5.364 -2.8508  1.0810  1.0383
22466SOL    HW268840   6.840   5.518   5.459 -1.2664  1.1319 -0.1437
22467SOL     OW68841   1.670   4.674   1.125  0.0484  0.0657  0.1423
22467SOL    HW168842   1.575   4.679   1.134  0.0572 -1.3874  1.4663
22467SOL    HW268843   1.692   4.742   1.061 -1.8783  0.3539 -0.2644
22468SOL     OW68844   0.874   0.982   0.307  0.1977 -0.1110 -0.6822
22468SOL    HW168845   0.856   1.067   0.346  1.6494 -0.7736  1.6528
22468SOL    HW268846   0.841   0.919   0.370  0.4538 -1.2875 -1.6798
22469SOL     OW68847   2.290   0.928   3.848 -0.3241 -0.2276  0.4974
22469SOL    HW168848   2.231   1.002   3.830 -0.4479 -1.0359 -3.3055
22469SOL    HW268849   2.233   0.851   3.847  0.3929 -0.7672 -0.4778
22470SOL     OW68850   5.724   5.668   5.356 -0.0955 -0.6242 -0.4404
22470SOL    HW168851   5.709   5.738   5.420 -2.6600 -1.2589 -0.2235
22470SOL    HW268852   5.718   5.711   5.271 -0.3803 -0.3691 -0.2928
22471SOL     OW68853   7.640   0.916  11.732 -0.1299  0.2639  0.3706
22471SOL    HW168854   7.604   0.834  11.699  1.2211 -0.1974  0.0231
22471SOL    HW268855   7.692   0.951  11.660  0.8773  0.4458  1.1662
22472SOL     OW68856   4.273   7.516   2.691 -0.2822 -0.0550  0.4616
22472SOL    HW168857   4.363   7.490   2.669 -0.1162  0.1403  0.8924
22472SOL    HW268858   4.222   7.436   2.682 -0.1891 -0.0313 -0.4281
22473SOL     OW68859   4.951   0.206   5.507 -0.1770  0.2892 -0.1312
22473SOL    HW168860   4.876   0.151   5.529 -0.8960  1.8620  1.6781
22473SOL    HW268861   4.934   0.237   5.419 -0.1293 -1.7041 -0.8819
22474SOL     OW68862   4.408   4.146   7.999  0.2074  0.5265 -0.1149
22474SOL    HW168863   4.317   4.176   8.008 -0.3478 -1.4396  1.9882
22474SOL    HW268864   4.403   4.051   8.014  2.7040  0.4772  0.9212
22475SOL     OW68865   0.277   3.924   2.201 -0.1519 -0.2943 -0.4020
22475SOL    HW168866   0.357   3.872   2.193  0.6805  1.0442 -1.2314
22475SOL    HW268867   0.212   3.863   2.234  0.8677 -1.7657 -1.0087
22476SOL     OW68868   0.949   0.422   8.473  0.3167  0.5070  0.3102
22476SOL    HW168869   0.864   0.464   8.486  0.3994  0.6702  0.3282
22476SOL    HW268870   1.013   0.487   8.504  0.3876 -0.1636  1.6522
22477SOL     OW68871   4.287   7.153   7.866 -0.0137 -0.1678  0.3341
22477SOL    HW168872   4.329   7.148   7.780  1.7972  1.4594  1.0685
22477SOL    HW268873   4.247   7.240   7.868  0.2389 -0.0641  1.2599
22478SOL     OW68874   1.159   6.122   5.398 -0.4884  0.3552 -0.5080
22478SOL    HW168875   1.152   6.213   5.427 -0.5708 -0.0734  0.8595
22478SOL    HW268876   1.141   6.070   5.476 -0.9748 -0.8513 -1.3848
22479SOL     OW68877   5.254   5.945   7.577  0.6106 -0.2414  0.6939
22479SOL    HW168878   5.241   5.856   7.546  1.0388 -0.6648  1.6850
22479SOL    HW268879   5.179   5.994   7.543  1.5676 -0.4157 -1.8708
22480SOL     OW68880   6.082   3.076   9.908  0.2403  0.5893  0.1658
22480SOL    HW168881   6.128   3.146   9.954 -0.5666  2.3524 -1.5836
22480SOL    HW268882   5.995   3.075   9.947 -0.4646  2.1270 -1.2460
22481SOL     OW68883   6.376   6.954   3.404  0.2269  0.2458  0.6506
22481SOL    HW168884   6.313   7.011   3.359  0.9871  0.8615  0.3606
22481SOL    HW268885   6.461   6.980   3.370  0.4719 -2.4264 -1.0017
22482SOL     OW68886   4.155   4.218   4.845  0.6812  0.1600 -0.1270
22482SOL    HW168887   4.146   4.156   4.917  1.5928  0.0341 -0.1020
22482SOL    HW268888   4.249   4.218   4.825  0.8628  2.2506  0.5046
22483SOL     OW68889   5.566   3.499   3.994  0.2334  0.3740  0.1592
22483SOL    HW168890   5.487   3.471   4.040  0.4488 -0.2522  0.1639
22483SOL    HW268891   5.585   3.586   4.029  1.2929 -0.6952  2.4359
22484SOL     OW68892   5.219   5.164   2.043  0.1214 -0.1764  0.6371
22484SOL    HW168893   5.312   5.172   2.063  0.1935 -1.5574  1.0002
22484SOL    HW268894   5.195   5.247   2.003  1.8089 -0.2770 -0.6991
22485SOL     OW68895   1.199   2.594   8.682  0.1930  0.0532  0.0686
22485SOL    HW168896   1.149   2.586   8.763 -0.2387  0.7526 -0.1241
22485SOL    HW268897   1.175   2.516   8.631 -0.0121 -0.0680  0.3474
22486SOL     OW68898   0.627   7.265   0.869  0.2005 -0.1769 -0.6047
22486SOL    HW168899   0.614   7.315   0.789  0.9311 -2.2212 -2.0844
22486SOL    HW268900   0.569   7.307   0.933 -1.1795  0.9088 -2.4632
22487SOL     OW68901   7.770   7.161   6.736  0.4187 -0.1177 -0.5415
22487SOL    HW168902   7.717   7.231   6.774  1.5965  1.9590 -2.4331
22487SOL    HW268903   7.839   7.145   6.800  0.8173  1.3508 -0.5637
22488SOL     OW68904   7.160   1.310   4.916 -0.0348 -0.4609 -0.4519
22488SOL    HW168905   7.232   1.367   4.890 -0.8093 -0.3985 -2.6423
22488SOL    HW268906   7.111   1.362   4.981 -0.1917  1.0053 -1.6891
22489SOL     OW68907   4.049   4.766  10.383  0.4431  0.3919 -0.4568
22489SOL    HW168908   4.118   4.699  10.380  0.6897  0.0089  4.7267
22489SOL    HW268909   4.096   4.849  10.374  2.0039  0.1797  3.8018
22490SOL     OW68910   6.668   2.381   0.307 -0.2874 -0.1053  0.6708
22490SOL    HW168911   6.746   2.375   0.363  1.3390 -0.3927 -1.4736
22490SOL    HW268912   6.659   2.294   0.268 -1.1776  0.1698  0.2361
22491SOL     OW68913   0.168   0.365   3.592  0.4735  0.4274 -0.6689
22491SOL    HW168914   0.134   0.276   3.589 -3.4587  1.6541  0.5739
22491SOL    HW268915   0.195   0.378   3.683  1.8439  0.2799 -1.0419
22492SOL     OW68916   1.314   6.207   1.957  0.2729 -0.3961 -0.0108
22492SOL    HW168917   1.221   6.204   1.934  0.2047  0.7328  0.0595
22492SOL    HW268918   1.334   6.119   1.987 -0.3482 -1.1551 -1.6762
22493SOL     OW68919   0.670   6.212   7.694  0.0878  0.5106 -0.3563
22493SOL    HW168920   0.617   6.289   7.673 -0.6841 -0.0087 -0.3553
22493SOL    HW268921   0.754   6.230   7.653  0.0007  1.4680 -0.1391
22494SOL     OW68922   5.714   6.785   2.288  0.5195  0.2425  0.0795
22494SOL    HW168923   5.670   6.754   2.209 -0.0401 -0.5759  0.6930
22494SOL    HW268924   5.644   6.824   2.341  0.6512 -0.3974  0.7369
22495SOL     OW68925   1.799   5.677  11.987  0.1427  0.3934  0.3933
22495SOL    HW168926   1.796   5.750  11.926 -1.6117  0.1983  0.1886
22495SOL    HW268927   1.864   5.702  12.052  0.7085  1.4207 -0.5416
22496SOL     OW68928   3.200   0.494   2.127 -0.2767  0.7100 -0.0467
22496SOL    HW168929   3.147   0.458   2.199  1.9488 -1.8303  0.4887
22496SOL    HW268930   3.270   0.542   2.172 -0.5087  1.6558 -0.6659
22497SOL     OW68931   5.769   2.330   4.908  0.1242  0.0102  0.0838
22497SOL    HW168932   5.827   2.265   4.869 -1.3309 -1.4703  0.2586
22497SOL    HW268933   5.689   2.281   4.929 -0.7830  1.7246  0.8414
22498SOL     OW68934   3.499   2.060   3.082  0.9252 -0.3516  0.1177
22498SOL    HW168935   3.443   2.090   3.010  1.2388  0.6382  0.2787
22498SOL    HW268936   3.540   1.980   3.049  0.9926  0.0442 -0.7734
22499SOL     OW68937   2.714   7.200   7.960 -0.4471  0.1805  0.0023
22499SOL    HW168938   2.704   7.119   7.911 -0.4645 -0.0241  0.3388
22499SOL    HW268939   2.790   7.184   8.017  0.6101  1.0101 -1.1254
22500SOL     OW68940   3.375   7.453   5.049  0.0114 -0.1007 -0.0107
22500SOL    HW168941   3.398   7.457   5.142 -0.5376  1.4612  0.0862
22500SOL    HW268942   3.454   7.419   5.006 -0.1478 -2.1065  1.1226
22501SOL     OW68943   7.436   2.485   8.947  0.7860  0.0687  0.4146
22501SOL    HW168944   7.501   2.553   8.965  0.6969  1.1068 -2.5955
22501SOL    HW268945   7.487   2.414   8.908  0.5828 -0.8205  1.6846
22502SOL     OW68946   6.907   4.619   0.436  0.3427 -0.7225  0.4650
22502SOL    HW168947   6.876   4.676   0.507 -1.3160  0.9604 -1.4929
22502SOL    HW268948   6.982   4.667   0.399  0.5308 -1.0694  0.3969
22503SOL     OW68949   0.225   3.037   7.588  0.0068  0.1792  0.7877
22503SOL    HW168950   0.178   3.113   7.620 -1.0650 -0.3655  0.5334
22503SOL    HW268951   0.318   3.062   7.594 -0.1301  0.2299  3.9000
22504SOL     OW68952   2.506   4.288   5.468  0.0706  0.3303  0.3688
22504SOL    HW168953   2.502   4.225   5.396 -0.5123  0.2802  0.4403
22504SOL    HW268954   2.501   4.235   5.547  1.8722  0.2836  0.4972
22505SOL     OW68955   1.021   7.726   6.543 -0.3495 -0.1192 -0.2212
22505SOL    HW168956   0.995   7.768   6.625  3.2705  1.2863  0.4191
22505SOL    HW268957   1.087   7.661   6.570  0.2737 -0.2466 -1.9391
22506SOL     OW68958   5.557   0.919   8.782 -0.2137  0.3169  0.3352
22506SOL    HW168959   5.647   0.951   8.783  0.7014 -2.0469  0.7133
22506SOL    HW268960   5.526   0.930   8.871  0.6211 -1.0902  0.8393
22507SOL     OW68961   7.166   5.437   2.734 -0.4899  0.0349 -0.0583
22507SOL    HW168962   7.252   5.477   2.750 -0.4899  0.0634 -0.1310
22507SOL    HW268963   7.163   5.362   2.793 -1.2439  1.2071  1.4596
22508SOL     OW68964   2.202   0.370   4.652 -0.1622 -0.2379 -0.1703
22508SOL    HW168965   2.201   0.426   4.574  1.7033 -1.5040 -1.1720
22508SOL    HW268966   2.111   0.368   4.681 -0.4170  2.7911 -0.4325
22509SOL     OW68967   6.858   2.268  12.303  0.1685 -0.8928 -0.2286
22509SOL    HW168968   6.912   2.261  12.224  0.4714  0.9297 -0.2278
22509SOL    HW268969   6.773   2.298  12.272  0.2048 -0.4377  0.1002
22510SOL     OW68970   7.908   1.082   4.900  0.2018 -0.4201 -0.3609
22510SOL    HW168971   7.853   1.088   4.978  2.1192  0.1523  1.0285
22510SOL    HW268972   7.995   1.109   4.930  0.9920 -0.0989 -2.7356
22511SOL     OW68973   6.080   3.882   2.815 -0.2979 -0.1052 -0.1319
22511SOL    HW168974   6.146   3.952   2.811 -0.5099  0.2797  1.9361
22511SOL    HW268975   6.108   3.819   2.750  1.4877  0.5985 -0.1021
22512SOL     OW68976   0.617   1.275   2.682 -0.3392  0.3703 -0.7164
22512SOL    HW168977   0.595   1.308   2.595  0.7463  0.3972 -0.9876
22512SOL    HW268978   0.540   1.223   2.707 -2.5274  3.6564  0.1077
22513SOL     OW68979   2.949   6.252   6.524  0.0752  0.8537 -0.1897
22513SOL    HW168980   3.007   6.276   6.452  0.2343  0.8461 -0.0624
22513SOL    HW268981   2.861   6.272   6.491 -0.1118 -1.7024 -1.4808
22514SOL     OW68982   4.521   0.711   8.184 -0.1529 -0.2000  0.0531
22514SOL    HW168983   4.501   0.624   8.150 -0.7872 -0.0895  0.1266
22514SOL    HW268984   4.513   0.702   8.279  0.6421 -0.2701  0.1169
22515SOL     OW68985   6.405   4.039   6.089 -0.1683 -0.6996  0.3512
22515SOL    HW168986   6.368   3.960   6.128  1.0705 -1.4558  0.0528
22515SOL    HW268987   6.499   4.028   6.097  0.0364  0.6272  0.0446
22516SOL     OW68988   5.024   1.067  10.120 -0.4648  0.3652  0.7504
22516SOL    HW168989   5.090   1.135  10.104 -0.3100 -0.2405 -1.6615
22516SOL    HW268990   5.072   0.985  10.112 -1.6702 -0.1742 -3.1049
22517SOL     OW68991   3.820   3.191   7.962 -0.8031  0.3927 -0.0590
22517SOL    HW168992   3.806   3.097   7.946 -1.8991  0.5418 -0.0408
22517SOL    HW268993   3.828   3.228   7.874 -0.2659  0.2829 -0.0651
22518SOL     OW68994   7.479   3.925   4.431 -0.0069  0.0545 -0.4285
22518SOL    HW168995   7.505   4.015   4.450  1.3386 -0.5228  0.6678
22518SOL    HW268996   7.417   3.933   4.358  1.3248  1.7316 -1.4726
22519SOL     OW68997   1.239   4.086   2.185  0.5949 -0.0908 -0.2049
22519SOL    HW168998   1.318   4.044   2.218  1.1202  0.6516 -0.4833
22519SOL    HW268999   1.206   4.026   2.118  0.5314 -0.7330  0.3956
22520SOL     OW69000   7.022   3.416   9.471 -0.1676  0.3191  0.1117
22520SOL    HW169001   7.051   3.401   9.561  3.9351  0.4246 -0.9828
22520SOL    HW269002   7.032   3.331   9.428  0.1665  0.7795 -0.7387
22521SOL     OW69003   2.605   2.399   0.838  0.3215 -0.5463  0.0063
22521SOL    HW169004   2.636   2.459   0.770  1.3462  0.0386  0.9559
22521SOL    HW269005   2.679   2.389   0.897 -0.6619 -0.7193  1.2651
22522SOL     OW69006   2.651   7.398   3.628 -0.2641 -0.2162 -0.3841
22522SOL    HW169007   2.735   7.429   3.593 -0.1141 -0.3485 -0.1468
22522SOL    HW269008   2.585   7.447   3.579 -0.0480 -0.1093 -0.5725
22523SOL     OW69009   3.830   2.435   4.612  0.2338 -0.4052  0.1259
22523SOL    HW169010   3.907   2.386   4.641  0.4297  0.0039  0.3053
22523SOL    HW269011   3.761   2.370   4.606  0.4672 -0.6886  0.4642
22524SOL     OW69012   7.363   4.991   3.689  0.0160  0.4597 -0.7385
22524SOL    HW169013   7.409   4.989   3.773  1.4769  0.0918 -1.5129
22524SOL    HW269014   7.413   5.052   3.636 -0.4322  0.0839 -1.6079
22525SOL     OW69015   7.175   0.884  10.264  0.3116  0.0300  0.1594
22525SOL    HW169016   7.236   0.858  10.195 -0.4294  0.5272 -0.6892
22525SOL    HW269017   7.136   0.965  10.233  1.3863  1.3475  2.0371
22526SOL     OW69018   3.151   5.280   9.549  0.2697 -1.0431 -0.0364
22526SOL    HW169019   3.185   5.192   9.565  2.2753 -0.4632 -0.6944
22526SOL    HW269020   3.130   5.314   9.635  1.8698 -1.3072  0.4896
22527SOL     OW69021   2.822   6.951   4.658 -0.2505  0.3318 -0.4027
22527SOL    HW169022   2.758   6.898   4.705 -0.5063  0.5484 -0.5084
22527SOL    HW269023   2.773   6.993   4.588 -0.0274  0.6323 -0.3810
22528SOL     OW69024   3.176   2.588  10.631 -0.1769 -0.0881  0.1227
22528SOL    HW169025   3.262   2.607  10.594  0.1047  1.6249  1.5071
22528SOL    HW269026   3.170   2.493  10.628  1.2171 -0.1832 -1.1717
22529SOL     OW69027   3.660   2.623   0.033 -0.0104 -0.4712  0.1409
22529SOL    HW169028   3.597   2.655  -0.032  0.0368  0.8678  0.7108
22529SOL    HW269029   3.731   2.687   0.030 -0.2170 -0.1067  1.8028
22530SOL     OW69030   7.748   1.877   8.717 -0.3078 -0.0467  0.0994
22530SOL    HW169031   7.742   1.807   8.782  0.2149 -0.5696 -0.4006
22530SOL    HW269032   7.691   1.848   8.646  0.0851 -0.0842 -0.2063
22531SOL     OW69033   4.652   5.780   0.776  0.0319  0.1613  0.0409
22531SOL    HW169034   4.587   5.761   0.708  0.0106  2.0785 -0.5234
22531SOL    HW269035   4.708   5.702   0.777 -0.9781 -0.6251 -0.9761
22532SOL     OW69036   0.192   2.705   4.017  0.1667  0.1194  0.2407
22532SOL    HW169037   0.276   2.662   4.009  0.5474  0.9395 -0.3343
22532SOL    HW269038   0.134   2.657   3.957  0.6952  0.6366 -0.7161
22533SOL     OW69039   5.279   2.574   9.461  0.1059  0.3807 -0.5879
22533SOL    HW169040   5.312   2.648   9.410 -1.3066  0.1452 -1.9149
22533SOL    HW269041   5.185   2.589   9.467  0.2375  0.6993  2.5290
22534SOL     OW69042   3.498   3.244   8.097 -0.0194  0.0766  0.2120
22534SOL    HW169043   3.518   3.164   8.048 -1.3860  0.5858 -1.2341
22534SOL    HW269044   3.409   3.231   8.129 -0.0670  0.8289  0.3986
22535SOL     OW69045   5.333   6.952   6.316 -0.3633 -0.2119 -0.6655
22535SOL    HW169046   5.389   7.017   6.358 -0.1229 -1.4660  1.1012
22535SOL    HW269047   5.393   6.883   6.287 -0.8670 -1.4964  1.1085
22536SOL     OW69048   2.731   5.604  11.240  0.5703  0.2150  0.1216
22536SOL    HW169049   2.795   5.591  11.310  3.0313  4.2828 -1.0371
22536SOL    HW269050   2.772   5.566  11.162  0.3253  0.4485 -0.1257
22537SOL     OW69051   6.247   6.095   0.667  0.4996  0.1151  0.2004
22537SOL    HW169052   6.198   6.128   0.742  0.2325 -1.5805  0.8175
22537SOL    HW269053   6.273   6.006   0.692  1.6812  0.0452 -1.1378
22538SOL     OW69054   6.947   6.072   7.738  0.0236 -0.0284 -0.1898
22538SOL    HW169055   6.852   6.068   7.728  0.1695 -0.2748 -1.7755
22538SOL    HW269056   6.981   6.060   7.649  1.5445 -0.1405  0.3741
22539SOL     OW69057   6.456   4.342   5.416  0.4151  0.8823  0.0646
22539SOL    HW169058   6.441   4.420   5.469  0.9862  1.1122 -0.0984
22539SOL    HW269059   6.551   4.327   5.424  0.3496  0.3647 -0.1231
22540SOL     OW69060   1.881   3.670   5.367 -0.2101  0.3452 -0.0503
22540SOL    HW169061   1.836   3.721   5.299  0.8812  1.2533 -0.1169
22540SOL    HW269062   1.824   3.594   5.381 -0.9350  0.6203 -1.2974
22541SOL     OW69063   2.198   1.903   6.225 -0.0449 -0.3821 -0.0095
22541SOL    HW169064   2.184   1.997   6.241  0.7827 -0.1311 -0.7063
22541SOL    HW269065   2.163   1.888   6.137  1.6525 -0.2834 -0.7269
22542SOL     OW69066   2.670   2.700   6.369  0.5297  0.1315 -0.1911
22542SOL    HW169067   2.721   2.620   6.379 -1.1225 -0.7181  2.3229
22542SOL    HW269068   2.617   2.685   6.291  1.8732 -0.1979 -1.0907
22543SOL     OW69069   6.844   7.452   2.693  0.1613 -0.7123  0.0261
22543SOL    HW169070   6.932   7.415   2.695  0.2431 -0.4839  0.8982
22543SOL    HW269071   6.786   7.377   2.695  0.3299 -0.8179  1.1253
22544SOL     OW69072   4.809   4.915   6.721 -0.1813  0.0782 -0.4813
22544SOL    HW169073   4.875   4.856   6.759 -0.6791 -1.2257 -1.5736
22544SOL    HW269074   4.860   4.989   6.688  0.8217 -1.1027 -1.6867
22545SOL     OW69075   0.947   5.269  10.742  0.0223 -0.0110 -0.2781
22545SOL    HW169076   0.865   5.291  10.786  0.8285  2.0935  0.2848
22545SOL    HW269077   0.992   5.210  10.803 -0.5564 -0.2518 -0.0751
22546SOL     OW69078   5.291   1.001   3.112 -0.3447 -0.9240 -0.4183
22546SOL    HW169079   5.254   1.067   3.053 -0.9841 -1.8101 -1.0420
22546SOL    HW269080   5.360   1.047   3.160 -1.5791  0.4965  0.0297
22547SOL     OW69081   7.868   5.106  12.397  0.1650 -0.0585 -0.0975
22547SOL    HW169082   7.842   5.123  12.307  0.5942 -0.2053 -0.2500
22547SOL    HW269083   7.792   5.063  12.437 -0.1597  0.3353 -0.2839
22548SOL     OW69084   7.505   3.829   1.060  0.0655  0.5840  0.3753
22548SOL    HW169085   7.465   3.906   1.100 -0.8441  0.8821 -1.0243
22548SOL    HW269086   7.440   3.798   0.998  0.5260 -1.1880  0.7328
22549SOL     OW69087   0.904   2.232   5.923 -0.2680  0.2970  0.6113
22549SOL    HW169088   0.959   2.283   5.864 -0.9552  1.6099  1.0644
22549SOL    HW269089   0.946   2.145   5.926  3.1897  1.7942  2.6875
22550SOL     OW69090   3.037   2.764   3.122  0.6955  0.5524 -0.0592
22550SOL    HW169091   3.118   2.724   3.153  0.6781  0.8283  0.3527
22550SOL    HW269092   2.993   2.694   3.073  0.8655  0.1945  0.2902
22551SOL     OW69093   5.294   7.288   6.471  0.2370  0.3050  0.3629
22551SOL    HW169094   5.317   7.294   6.564 -1.8189 -0.3763  0.9504
22551SOL    HW269095   5.352   7.220   6.436 -0.8581 -1.4585  1.8230
22552SOL     OW69096   1.595   0.994   3.370 -0.2147 -0.0329  0.3165
22552SOL    HW169097   1.639   1.030   3.446 -0.6090  0.1958  0.4400
22552SOL    HW269098   1.564   0.908   3.398  0.2251 -0.2318  0.2013
22553SOL     OW69099   4.577   5.417  10.788  0.0674  0.1057 -0.5045
22553SOL    HW169100   4.640   5.432  10.717  0.3542  1.1061 -0.0482
22553SOL    HW269101   4.584   5.323  10.805 -0.2663 -0.2362 -2.0266
22554SOL     OW69102   3.305   3.064  10.932  0.5585  0.1281  0.0815
22554SOL    HW169103   3.305   2.974  10.897 -1.8273  0.0638  0.1211
22554SOL    HW269104   3.327   3.119  10.857 -1.9381 -0.2252 -1.0156
22555SOL     OW69105   0.982   3.385   5.725  0.2883 -0.4396 -0.4602
22555SOL    HW169106   0.952   3.354   5.639  1.6240 -0.4983 -0.9339
22555SOL    HW269107   0.903   3.421   5.766 -0.0617  1.3614 -2.5095
22556SOL     OW69108   2.008   4.360  11.523 -0.1816  0.4221 -0.3684
22556SOL    HW169109   2.099   4.365  11.496 -0.0258 -2.1110 -0.5110
22556SOL    HW269110   2.012   4.343  11.617 -0.4163 -1.0757 -0.5987
22557SOL     OW69111   2.879   7.182   9.593 -0.0229 -0.2850 -0.0505
22557SOL    HW169112   2.837   7.232   9.524  0.7619 -0.1211 -0.4278
22557SOL    HW269113   2.878   7.240   9.669 -0.6059 -0.3446 -0.0078
22558SOL     OW69114   4.246   2.096   6.140  0.0336 -0.3766 -0.0252
22558SOL    HW169115   4.328   2.143   6.157 -0.9739  0.9682  1.3734
22558SOL    HW269116   4.195   2.157   6.087  0.4028 -1.7635 -2.1345
22559SOL     OW69117   1.396   0.216   3.539  0.4730 -0.5954  0.0519
22559SOL    HW169118   1.382   0.203   3.632  0.8803  0.9137  0.3497
22559SOL    HW269119   1.360   0.303   3.521  0.2699 -0.9249 -1.2302
22560SOL     OW69120   4.030   2.349   6.634  0.2643  0.2005  0.0836
22560SOL    HW169121   4.000   2.266   6.598 -0.5777  1.1365 -1.4325
22560SOL    HW269122   4.076   2.391   6.562  0.3722  1.2156  0.7285
22561SOL     OW69123   1.844   4.325   6.208  0.0525  0.4234  0.1994
22561SOL    HW169124   1.805   4.407   6.237 -0.4256 -0.1014  1.0784
22561SOL    HW269125   1.894   4.349   6.130  1.4544  1.9007  1.4657
22562SOL     OW69126   0.880   6.581   7.449 -0.2766  0.1710 -0.1748
22562SOL    HW169127   0.929   6.557   7.370 -0.7686 -0.8943 -0.1631
22562SOL    HW269128   0.808   6.635   7.417  0.5788  1.3122 -0.2466
22563SOL     OW69129   6.320   7.879  11.778  0.1580  0.2176  0.3888
22563SOL    HW169130   6.244   7.867  11.721 -0.1404  1.3021  0.5365
22563SOL    HW269131   6.395   7.865  11.721 -0.0807 -2.6082  0.6021
22564SOL     OW69132   0.293   1.417   2.839 -0.1587 -0.0806  0.0898
22564SOL    HW169133   0.310   1.495   2.892 -0.8011  0.7101 -0.8231
22564SOL    HW269134   0.295   1.345   2.901  1.4909  0.5180  0.8046
22565SOL     OW69135   0.955   3.019   3.757 -0.4012 -0.8238 -0.3491
22565SOL    HW169136   0.948   3.000   3.850 -0.4273 -0.1062 -0.1981
22565SOL    HW269137   1.005   2.945   3.721  0.3185 -0.7012  0.3697
22566SOL     OW69138   5.444   6.691   4.556 -0.1218 -0.5504 -0.9165
22566SOL    HW169139   5.456   6.598   4.535  1.2607 -1.2307  2.3054
22566SOL    HW269140   5.531   6.728   4.551 -0.2606 -0.0339  0.1517
22567SOL     OW69141   6.054   1.071   1.933  0.2830 -0.4255  0.3200
22567SOL    HW169142   6.011   1.037   1.855  0.9380 -1.0321  0.2052
22567SOL    HW269143   6.057   0.997   1.993  4.2462 -1.5743 -0.9789
22568SOL     OW69144   7.404   3.218   4.133  0.6490  0.0731  0.3071
22568SOL    HW169145   7.482   3.200   4.081  0.4834  1.5874 -0.5356
22568SOL    HW269146   7.413   3.162   4.210  1.5168 -1.3016 -0.7551
22569SOL     OW69147   3.148   6.893   1.867  0.6642  0.1995  0.1532
22569SOL    HW169148   3.122   6.944   1.791  0.2424 -0.9952 -0.5312
22569SOL    HW269149   3.159   6.804   1.834  0.9379 -0.2509  1.3933
22570SOL     OW69150   4.815   4.131  10.551  0.3474  0.1734 -0.0700
22570SOL    HW169151   4.866   4.075  10.608 -0.3869 -1.0099 -0.5445
22570SOL    HW269152   4.808   4.214  10.598  0.6174 -0.4479  1.0893
22571SOL     OW69153   3.415   4.502  10.286  0.0556  0.3643 -0.0240
22571SOL    HW169154   3.408   4.534  10.376  1.3334 -0.8148  0.5139
22571SOL    HW269155   3.333   4.456  10.271  0.3845 -0.6031  1.0238
22572SOL     OW69156   3.706   7.654  11.047 -0.0985  0.2305 -0.3814
22572SOL    HW169157   3.763   7.725  11.018 -1.4882  0.9483 -1.4374
22572SOL    HW269158   3.695   7.669  11.141  0.0786  1.0744 -0.4908
22573SOL     OW69159   5.396   0.875   4.133 -0.3888  0.6494 -0.6857
22573SOL    HW169160   5.323   0.879   4.070 -0.4812  1.8144 -0.5214
22573SOL    HW269161   5.474   0.888   4.079 -0.0892 -2.2540 -1.1286
22574SOL     OW69162   2.288   0.973  11.418  0.4175 -0.4685  0.5048
22574SOL    HW169163   2.205   1.021  11.420  0.6683  0.1098 -1.4724
22574SOL    HW269164   2.318   0.975  11.509 -1.7508 -0.7599  1.2918
22575SOL     OW69165   0.752   4.772   1.298  0.9330  0.2737  0.2973
22575SOL    HW169166   0.711   4.768   1.212  0.7977  0.1931  0.3662
22575SOL    HW269167   0.718   4.852   1.338  0.5490  0.0039  0.5058
22576SOL     OW69168   0.645   7.099   7.381  0.4724 -0.8312 -0.4040
22576SOL    HW169169   0.680   7.163   7.319  2.7228 -0.8860  0.7282
22576SOL    HW269170   0.706   7.100   7.454 -1.7312 -1.2791  1.5431
22577SOL     OW69171   3.037   7.261   5.201 -0.7676 -0.1612  0.8118
22577SOL    HW169172   2.944   7.237   5.202 -0.4420 -1.5403 -0.0501
22577SOL    HW269173   3.083   7.180   5.181  0.4338  1.1001 -2.0850
22578SOL     OW69174   5.075   0.226   3.589 -0.4454 -0.4747  0.4927
22578SOL    HW169175   5.141   0.172   3.633 -0.8703 -0.1382  1.5522
22578SOL    HW269176   5.019   0.163   3.545  0.4034 -0.7806 -0.1961
22579SOL     OW69177   5.023   0.176   7.148  0.0173 -0.9394 -0.0662
22579SOL    HW169178   5.070   0.155   7.068  0.5222  1.1575 -0.3730
22579SOL    HW269179   5.062   0.258   7.178 -1.8216 -0.3977  0.9943
22580SOL     OW69180   1.538   2.068  10.489  0.1460 -0.0939 -0.6672
22580SOL    HW169181   1.540   1.973  10.498 -0.5038 -0.0696 -0.1287
22580SOL    HW269182   1.613   2.089  10.434  1.5028 -0.7434  0.8491
22581SOL     OW69183   2.553   7.843   4.429 -0.0115  0.1855 -0.2772
22581SOL    HW169184   2.584   7.933   4.439  0.7828  0.0395 -1.2959
22581SOL    HW269185   2.478   7.837   4.488 -1.7299  2.3110 -2.0653
22582SOL     OW69186   2.928   4.547   2.754 -0.2841  0.1902  0.0754
22582SOL    HW169187   2.941   4.500   2.836  0.2411 -0.7312 -0.5169
22582SOL    HW269188   2.836   4.534   2.732 -0.6555  1.2080  0.9683
22583SOL     OW69189   1.070   3.584   8.668 -0.3178  0.7990 -0.7929
22583SOL    HW169190   1.027   3.537   8.740  2.9487  1.7110  2.0454
22583SOL    HW269191   1.005   3.586   8.599 -3.3803 -1.0802  1.7305
22584SOL     OW69192   5.999   6.989   5.878  0.3829  0.5865  0.0644
22584SOL    HW169193   6.028   6.919   5.820 -0.3262  0.4478 -0.1303
22584SOL    HW269194   6.056   7.063   5.858 -1.5167  1.4339 -2.7430
22585SOL     OW69195   2.343   0.559   4.462 -0.0586  0.2258  0.2614
22585SOL    HW169196   2.332   0.631   4.525 -0.8551  0.2222  0.1339
22585SOL    HW269197   2.414   0.588   4.405  2.5818 -0.8978  2.7264
22586SOL     OW69198   7.715   5.565   8.658 -0.0893 -0.0552 -0.3875
22586SOL    HW169199   7.757   5.503   8.717  2.2391  0.4849 -1.3198
22586SOL    HW269200   7.643   5.602   8.708  1.3367 -0.1353  1.8754
22587SOL     OW69201   0.432   4.130   2.333 -0.3060 -0.0156 -0.4370
22587SOL    HW169202   0.405   4.202   2.275 -0.4241  0.0558 -0.2938
22587SOL    HW269203   0.396   4.052   2.291 -1.2197  0.1328  0.0388
22588SOL     OW69204   2.791   3.760  12.371  0.6839 -0.0744  0.6338
22588SOL    HW169205   2.754   3.804  12.294  1.1605 -0.7767 -0.0065
22588SOL    HW269206   2.886   3.768  12.360  0.7489  0.1217  1.3270
22589SOL     OW69207   5.973   5.492   2.469  0.2667  0.2192 -0.5050
22589SOL    HW169208   5.878   5.495   2.455  0.3596  1.9787 -0.8696
22589SOL    HW269209   5.997   5.581   2.491  1.9330 -0.1012 -0.9274
22590SOL     OW69210   2.080   0.990   1.122 -0.1395 -0.0687 -0.2092
22590SOL    HW169211   2.046   0.945   1.045 -1.5063  1.1658 -0.3791
22590SOL    HW269212   2.043   0.942   1.196  0.0251 -0.4087 -0.3456
22591SOL     OW69213   0.738   2.294   3.694 -0.0339 -0.2286 -0.4329
22591SOL    HW169214   0.717   2.201   3.693 -2.2676  0.1671 -3.0086
22591SOL    HW269215   0.738   2.319   3.602  0.2294  2.3834  0.2003
22592SOL     OW69216   7.946   0.126   8.361 -0.2900 -0.1789 -0.2588
22592SOL    HW169217   7.872   0.086   8.316  0.1544 -0.3670 -0.8330
22592SOL    HW269218   8.006   0.152   8.291  0.7226 -1.0846  0.2472
22593SOL     OW69219   1.705   5.613  11.656  0.3541 -0.4617 -0.5253
22593SOL    HW169220   1.642   5.568  11.600  0.9682 -0.5565 -1.1531
22593SOL    HW269221   1.653   5.680  11.701 -0.3083 -0.9404 -0.5639
22594SOL     OW69222   3.695   4.716   6.273 -0.2643  0.5155 -0.3903
22594SOL    HW169223   3.762   4.782   6.292 -0.0537  0.6847 -1.6176
22594SOL    HW269224   3.689   4.715   6.177 -1.4535 -0.0653 -0.3305
22595SOL     OW69225   3.258   1.584   6.545 -0.1470  0.4922  0.0171
22595SOL    HW169226   3.274   1.494   6.575 -2.0690  0.0154 -0.2291
22595SOL    HW269227   3.318   1.596   6.472 -0.1811 -0.7731 -0.2503
22596SOL     OW69228   4.957   5.500   3.455 -0.1744 -0.1490  0.4838
22596SOL    HW169229   5.019   5.560   3.411  0.8500  0.2185  2.3389
22596SOL    HW269230   4.965   5.418   3.407 -1.0096  0.9112 -1.6155
22597SOL     OW69231   1.814   3.107   0.302  0.2850 -0.0063  0.3230
22597SOL    HW169232   1.762   3.180   0.268  0.6503  0.2554  0.3254
22597SOL    HW269233   1.890   3.103   0.244 -0.9625 -2.0271 -1.3267
22598SOL     OW69234   2.712   1.537   4.993  0.2356  0.3119 -0.1196
22598SOL    HW169235   2.712   1.441   5.001  0.8277  0.3932  1.1256
22598SOL    HW269236   2.786   1.556   4.934 -0.9166 -0.0547 -1.7584
22599SOL     OW69237   1.590   6.960   9.667  0.5045 -0.1978 -0.0939
22599SOL    HW169238   1.555   6.975   9.755 -3.1850 -0.4158 -1.3590
22599SOL    HW269239   1.587   7.046   9.625  1.8094 -0.1826 -0.1906
22600SOL     OW69240   2.829   3.592  10.230 -0.0282 -0.3789 -0.2224
22600SOL    HW169241   2.908   3.639  10.201 -0.9454  2.4310  1.4605
22600SOL    HW269242   2.863   3.519  10.281  1.5355  0.7552  0.4590
22601SOL     OW69243   1.915   6.097   8.860  0.2432 -0.0928  0.3085
22601SOL    HW169244   1.878   6.110   8.773  0.8432 -1.0289 -0.1019
22601SOL    HW269245   1.873   6.018   8.893 -0.9823  0.9903  1.4511
22602SOL     OW69246   7.645   4.552  12.314 -0.9966 -0.6978  0.5484
22602SOL    HW169247   7.618   4.515  12.398  2.2478  0.6942  2.4344
22602SOL    HW269248   7.654   4.476  12.256 -0.3712 -2.1419  2.4144
22603SOL     OW69249   7.542   5.199  11.920  0.3945  0.4662  0.5829
22603SOL    HW169250   7.638   5.201  11.914  0.3285  0.6616 -0.9576
22603SOL    HW269251   7.517   5.125  11.865 -0.3921  1.4158 -0.3892
22604SOL     OW69252   3.404   6.753   8.908 -0.5721  0.7226  0.0231
22604SOL    HW169253   3.405   6.848   8.920 -0.8620  0.9993 -1.8119
22604SOL    HW269254   3.369   6.740   8.820 -1.1209 -1.1258  0.4662
22605SOL     OW69255   7.462   4.877   3.340  0.3800 -0.1900  0.5528
22605SOL    HW169256   7.387   4.870   3.401 -0.0127  0.8455  0.2019
22605SOL    HW269257   7.508   4.794   3.350  0.8278  0.2787  2.9269
22606SOL     OW69258   5.441   7.188   8.996 -0.2109  1.1966 -0.0776
22606SOL    HW169259   5.353   7.150   9.002  0.7690 -1.3087 -0.4764
22606SOL    HW269260   5.494   7.136   9.056  1.9469 -0.4523 -3.1542
22607SOL     OW69261   3.618   0.397   9.956  0.2790 -0.3886 -0.3196
22607SOL    HW169262   3.664   0.478   9.978  0.2373 -0.4279 -0.0844
22607SOL    HW269263   3.605   0.353  10.040 -1.2297  0.1808 -0.2209
22608SOL     OW69264   1.729   7.201  10.633  0.2007 -0.2816 -0.6061
22608SOL    HW169265   1.707   7.284  10.591  0.2186  0.1991  0.3159
22608SOL    HW269266   1.683   7.135  10.582  0.3879  0.2689 -1.5025
22609SOL     OW69267   0.170   0.788  11.528 -0.0564  0.0600  0.2021
22609SOL    HW169268   0.238   0.788  11.460 -0.1822 -0.1397  0.0742
22609SOL    HW269269   0.150   0.881  11.541 -1.5747  0.0539 -1.5980
22610SOL     OW69270   3.761   4.795   4.962 -0.1639 -0.0536 -0.2165
22610SOL    HW169271   3.671   4.819   4.985 -0.2321  1.2082 -1.6649
22610SOL    HW269272   3.752   4.742   4.882  0.3150 -1.1209  0.4124
22611SOL     OW69273   4.993   2.464  10.264 -0.1559  1.0006 -0.1261
22611SOL    HW169274   5.010   2.436  10.174  2.1192 -0.2070  0.6053
22611SOL    HW269275   5.045   2.544  10.274  0.4208  0.5780  0.3737
22612SOL     OW69276   6.569   5.905  12.321  0.2878 -0.0515 -0.0886
22612SOL    HW169277   6.546   5.860  12.240  0.3295  0.3723 -0.3389
22612SOL    HW269278   6.502   5.878  12.383  0.9853 -1.4010  0.1153
22613SOL     OW69279   4.595   6.774   9.362  0.1491  0.1248 -0.1713
22613SOL    HW169280   4.687   6.749   9.357 -0.3070 -1.4558 -1.8946
22613SOL    HW269281   4.555   6.708   9.419 -0.0611  0.3744 -0.0240
22614SOL     OW69282   4.739   5.771  10.710  0.0988 -0.1593 -0.2332
22614SOL    HW169283   4.683   5.838  10.748  0.9384 -0.3133  1.3564
22614SOL    HW269284   4.776   5.812  10.631 -0.8743  0.5406 -0.3390
22615SOL     OW69285   7.221   4.467   4.585  0.1089  0.3922  0.0622
22615SOL    HW169286   7.258   4.537   4.531  0.2788  0.2081 -0.0591
22615SOL    HW269287   7.133   4.498   4.607 -0.7243 -0.3857 -1.9488
22616SOL     OW69288   0.661   4.469   7.220  0.2733  0.3519 -0.6845
22616SOL    HW169289   0.686   4.381   7.190  1.0327 -0.0351  0.9684
22616SOL    HW269290   0.651   4.460   7.315  0.7682  2.1397 -0.4333
22617SOL     OW69291   5.941   3.062   8.155  0.0639  0.0061  0.2300
22617SOL    HW169292   5.886   2.988   8.132  0.1319  0.1235 -0.3273
22617SOL    HW269293   6.025   3.045   8.111 -0.8974  1.9293 -2.6190
22618SOL     OW69294   7.932   2.996   6.290 -0.3656  0.6205 -1.1003
22618SOL    HW169295   7.922   2.919   6.233  1.0267  0.3795 -1.0745
22618SOL    HW269296   8.014   2.979   6.338 -1.5037  0.7860  1.0276
22619SOL     OW69297   2.333   0.904   3.102  0.0661 -0.4300  0.7981
22619SOL    HW169298   2.301   0.961   3.031  0.6606 -0.2886  0.6377
22619SOL    HW269299   2.256   0.855   3.129 -0.3578  0.1266  0.6264
22620SOL     OW69300   0.945   7.281   9.628 -0.3011  0.8045  0.3680
22620SOL    HW169301   1.022   7.254   9.578 -0.6605  1.3840 -0.5268
22620SOL    HW269302   0.981   7.313   9.711  0.3425  0.2172  0.3275
22621SOL     OW69303   4.660   7.318   4.400  0.3477 -0.1194 -0.4319
22621SOL    HW169304   4.643   7.355   4.313  2.0198  0.1350 -0.6773
22621SOL    HW269305   4.577   7.327   4.446 -0.5548 -0.1902 -1.9677
22622SOL     OW69306   7.088   1.612  11.148 -0.0554 -0.1465  0.2137
22622SOL    HW169307   7.025   1.543  11.165  0.2426 -0.3242  0.6028
22622SOL    HW269308   7.166   1.567  11.117  0.1893  0.0020  0.6086
22623SOL     OW69309   2.021   1.292   5.235  0.2263  0.3910 -0.5794
22623SOL    HW169310   2.012   1.269   5.143  1.8556 -1.1094 -0.4126
22623SOL    HW269311   1.991   1.214   5.282  0.8344  0.5653  0.1197
22624SOL     OW69312   1.400   5.463  10.609 -0.3823 -0.0537  0.3275
22624SOL    HW169313   1.419   5.372  10.635 -1.4177 -0.8707 -1.5755
22624SOL    HW269314   1.307   5.463  10.589  0.0013  0.8759 -1.7079
22625SOL     OW69315   0.037   7.394   0.090  0.1672  1.0515 -0.6291
22625SOL    HW169316   0.064   7.458   0.025 -0.3319  1.8983 -0.0220
22625SOL    HW269317   0.024   7.313   0.041 -0.1002  1.6521 -1.5560
22626SOL     OW69318   4.708   5.149   2.179 -0.0375  0.0887 -0.0479
22626SOL    HW169319   4.657   5.099   2.115 -0.8986 -1.1358  1.5393
22626SOL    HW269320   4.672   5.124   2.264  2.1076  0.4572  1.0505
22627SOL     OW69321   0.307   4.972   0.174 -0.0234 -0.0863 -0.3116
22627SOL    HW169322   0.371   4.968   0.245  1.8485  0.6207 -1.8958
22627SOL    HW269323   0.237   5.028   0.209  0.9076  0.3582  0.9298
22628SOL     OW69324   0.306   7.480   3.903 -0.0635 -0.2350 -0.3224
22628SOL    HW169325   0.363   7.554   3.883 -2.1286  1.1546 -1.5432
22628SOL    HW269326   0.245   7.513   3.968  0.2992 -1.5974  0.7635
22629SOL     OW69327   2.137   7.399   1.021  0.2894 -0.0310 -0.0820
22629SOL    HW169328   2.213   7.404   0.963  0.2962 -0.7455 -0.1391
22629SOL    HW269329   2.122   7.490   1.049 -1.6832  0.9922 -3.7055
22630SOL     OW69330   4.981   6.059   2.678  0.0255  0.0665 -0.8840
22630SOL    HW169331   4.944   6.076   2.764 -0.8342  2.0892 -1.5931
22630SOL    HW269332   5.008   5.967   2.681  1.7515  0.5299  2.1361
22631SOL     OW69333   1.161   2.669   2.291  0.3163  0.0385 -0.7064
22631SOL    HW169334   1.121   2.737   2.345 -0.4082 -2.0234  1.5494
22631SOL    HW269335   1.099   2.656   2.219 -0.1922  0.8553 -0.4287
22632SOL     OW69336   0.862   0.863   1.845  0.5756 -0.0353 -0.3617
22632SOL    HW169337   0.822   0.783   1.881 -0.0524  0.5547  0.2905
22632SOL    HW269338   0.792   0.903   1.794  0.8402  0.1770 -0.5521
22633SOL     OW69339   4.779   1.879   4.315 -0.0974  0.0876 -0.4332
22633SOL    HW169340   4.801   1.943   4.247  3.7313  0.1542  0.6385
22633SOL    HW269341   4.729   1.928   4.380  0.0033  1.1528 -1.1492
22634SOL     OW69342   2.640   3.478  12.084  0.2162 -0.4069  0.1381
22634SOL    HW169343   2.702   3.512  12.020 -0.3182  0.0765 -0.1337
22634SOL    HW269344   2.648   3.383  12.078  0.5491 -0.3562 -0.2613
22635SOL     OW69345   1.638   3.220   7.931  0.1436 -0.2728 -0.0041
22635SOL    HW169346   1.723   3.224   7.887 -0.7427  0.4625 -1.7425
22635SOL    HW269347   1.630   3.129   7.959  2.1989 -0.0118  1.7571
22636SOL     OW69348   3.517   5.772   4.996  0.0462 -0.6777 -0.0176
22636SOL    HW169349   3.535   5.860   5.028 -1.7419 -0.2943 -0.0114
22636SOL    HW269350   3.534   5.777   4.902 -2.3386  0.3566 -0.4450
22637SOL     OW69351   1.844   0.251   3.753  0.5089  0.1343  0.0596
22637SOL    HW169352   1.918   0.284   3.701  0.1202  0.3801 -0.3397
22637SOL    HW269353   1.866   0.277   3.843  1.5846 -1.0093  0.1582
22638SOL     OW69354   4.254   2.335   3.478 -0.1312 -0.1101 -0.3157
22638SOL    HW169355   4.187   2.369   3.419 -0.4549  1.0449  0.6624
22638SOL    HW269356   4.309   2.280   3.423 -0.6453  0.6060 -1.5968
22639SOL     OW69357   0.856   2.792   8.808 -0.1909 -0.6226  0.6351
22639SOL    HW169358   0.864   2.884   8.782  0.6879 -0.7954  0.2479
22639SOL    HW269359   0.847   2.744   8.726  1.0245 -1.0266  0.7154
22640SOL     OW69360   5.163   4.921   9.053 -0.6293  0.1308  0.3351
22640SOL    HW169361   5.257   4.918   9.035 -0.7903  0.6173 -0.6882
22640SOL    HW269362   5.156   4.926   9.148  0.4245  1.1020  0.3817
22641SOL     OW69363   6.383   5.354   8.995 -0.3460  0.5056  0.1474
22641SOL    HW169364   6.401   5.433   8.944  0.5898 -1.2083 -2.4552
22641SOL    HW269365   6.315   5.308   8.945 -1.7904  0.1949  2.2680
22642SOL     OW69366   4.976   3.314   1.487 -0.6906 -0.4269 -0.2150
22642SOL    HW169367   5.032   3.247   1.524 -2.2278 -1.3555  0.5367
22642SOL    HW269368   4.900   3.266   1.454 -2.1636  0.9745  0.9848
22643SOL     OW69369   2.217   0.040  11.159  0.2440  0.1025 -0.1214
22643SOL    HW169370   2.308   0.054  11.131 -0.3739  0.6022 -2.0496
22643SOL    HW269371   2.220   0.048  11.254  1.9393  1.7249 -0.2475
22644SOL     OW69372   5.024   1.449   7.258 -0.5600  0.0171  0.5912
22644SOL    HW169373   5.034   1.362   7.297  0.9087 -0.4907 -0.7588
22644SOL    HW269374   5.109   1.466   7.217 -0.9086  1.9932  0.5931
22645SOL     OW69375   6.463   4.023   1.404  0.2735 -0.6240 -0.7049
22645SOL    HW169376   6.531   4.054   1.343 -1.1099  1.9195 -1.1111
22645SOL    HW269377   6.410   3.963   1.352 -0.1981  0.6186 -1.7226
22646SOL     OW69378   1.986   1.357   3.546  0.1491 -0.4240 -0.4985
22646SOL    HW169379   1.916   1.336   3.484 -0.3515 -0.3983  0.0492
22646SOL    HW269380   1.966   1.446   3.575 -0.4213 -0.9421  0.7526
22647SOL     OW69381   2.854   1.116   8.741  0.5696 -0.8073  0.2521
22647SOL    HW169382   2.879   1.038   8.691  0.5473  0.0575 -1.1499
22647SOL    HW269383   2.854   1.187   8.677 -0.8969  0.0794  1.1746
22648SOL     OW69384   0.528   1.329   2.008 -0.2958 -0.7748  0.1085
22648SOL    HW169385   0.474   1.408   2.017 -0.8320 -1.1002 -0.2455
22648SOL    HW269386   0.470   1.264   1.969 -0.0144 -1.5149  0.8860
22649SOL     OW69387   5.071   6.649   9.055 -0.5097  0.2636  0.3660
22649SOL    HW169388   5.076   6.651   8.960  0.0812  0.3026  0.3967
22649SOL    HW269389   5.121   6.572   9.081 -1.2239 -0.1249  0.6124
22650SOL     OW69390   4.225   7.279   9.264  0.7054 -0.4138 -0.6317
22650SOL    HW169391   4.290   7.247   9.326  1.5828 -1.1351 -1.8773
22650SOL    HW269392   4.143   7.280   9.313  1.0000 -2.7814  0.0329
22651SOL     OW69393   2.798   2.030   4.623 -0.2419  0.3047  0.0698
22651SOL    HW169394   2.874   1.974   4.607 -0.1299  0.4343  0.1504
22651SOL    HW269395   2.811   2.106   4.567  1.1423  1.7006  2.1637
22652SOL     OW69396   0.361   5.139   5.484  0.7392  0.1064 -0.5052
22652SOL    HW169397   0.397   5.165   5.399 -0.6234 -0.6507 -1.3550
22652SOL    HW269398   0.438   5.123   5.538  1.6711 -0.2440 -1.8694
22653SOL     OW69399   4.009   3.628   7.521  0.3291  0.3595 -0.9649
22653SOL    HW169400   3.938   3.648   7.582 -0.0619 -1.5956 -0.7268
22653SOL    HW269401   3.969   3.573   7.454  1.3524  0.2736 -1.5263
22654SOL     OW69402   1.234   3.001   8.740  0.0489 -0.0018 -0.2741
22654SOL    HW169403   1.210   2.938   8.808 -0.8146 -0.0683 -0.6307
22654SOL    HW269404   1.315   3.041   8.772  1.1075 -1.9018 -0.4545
22655SOL     OW69405   3.442   0.998   6.645  0.5565 -0.6288 -0.1576
22655SOL    HW169406   3.429   0.948   6.564 -0.7049 -0.4690 -0.0756
22655SOL    HW269407   3.366   0.976   6.699  1.8934 -1.5299  1.4248
22656SOL     OW69408   5.408   2.201   7.620  0.8016  0.0936  0.4345
22656SOL    HW169409   5.489   2.191   7.670 -0.0031  0.6893  1.9209
22656SOL    HW269410   5.432   2.257   7.547  1.3546  1.9291  1.9364
22657SOL     OW69411   6.600   1.435   2.626 -0.4312 -0.3081 -0.2598
22657SOL    HW169412   6.539   1.392   2.566 -0.4422 -0.8873  0.1636
22657SOL    HW269413   6.687   1.409   2.596 -0.3419  0.9500 -1.1973
22658SOL     OW69414   1.670   6.030   1.984 -0.4409  0.8463  0.7201
22658SOL    HW169415   1.763   6.038   1.962  0.0602  0.3372  2.4391
22658SOL    HW269416   1.626   6.018   1.900  1.3587 -1.5944  0.0220
22659SOL     OW69417   5.088   6.896   1.020 -0.3078 -0.1249  0.2685
22659SOL    HW169418   5.017   6.858   1.072  0.0599  0.0578  0.9097
22659SOL    HW269419   5.147   6.935   1.084  0.0680  0.2557 -0.2960
22660SOL     OW69420   3.430   4.893   8.051  0.7683 -0.2412 -0.2108
22660SOL    HW169421   3.498   4.955   8.076 -0.3179  0.4352  1.1590
22660SOL    HW269422   3.413   4.912   7.959  2.1557 -0.1991 -0.4928
22661SOL     OW69423   5.540   6.275   0.571 -0.1040  0.1127  0.4438
22661SOL    HW169424   5.489   6.352   0.545 -0.5426  1.1224  3.7195
22661SOL    HW269425   5.474   6.208   0.590  0.1757 -0.5159 -0.7690
22662SOL     OW69426   4.843   4.315   4.065  0.4766  0.0199  0.2006
22662SOL    HW169427   4.879   4.312   3.976 -1.7026 -0.7726 -0.7290
22662SOL    HW269428   4.823   4.408   4.079  0.9239  0.1668 -0.1066
22663SOL     OW69429   4.864   2.983   6.671 -0.6541 -0.1274 -0.1166
22663SOL    HW169430   4.785   3.016   6.628  0.4578  2.7325 -0.1919
22663SOL    HW269431   4.936   3.028   6.627  1.2202 -3.4616 -0.8060
22664SOL     OW69432   2.771   5.748   8.731 -0.4182 -0.1032  0.1734
22664SOL    HW169433   2.686   5.748   8.686  0.9170 -0.2336 -2.5624
22664SOL    HW269434   2.790   5.840   8.746  0.2711  0.1720 -2.0534
22665SOL     OW69435   3.968   0.130   8.109 -0.3825  0.1234  0.1876
22665SOL    HW169436   3.905   0.087   8.167  0.0041 -1.3076 -0.4181
22665SOL    HW269437   4.035   0.063   8.093 -0.0743  0.7483 -1.2765
22666SOL     OW69438   2.552   1.489   6.094  0.3638 -0.1956  0.1616
22666SOL    HW169439   2.534   1.511   6.185 -0.7830  1.4771 -0.4345
22666SOL    HW269440   2.521   1.399   6.085 -0.7587  0.0790  1.0838
22667SOL     OW69441   3.753   4.335   2.972  0.3616 -0.1236 -0.0311
22667SOL    HW169442   3.682   4.271   2.965  0.4309 -0.2173  0.1217
22667SOL    HW269443   3.833   4.282   2.976  0.3029 -0.1424  2.3550
22668SOL     OW69444   0.109   3.918   5.852  0.5856 -0.0015 -0.0169
22668SOL    HW169445   0.055   3.876   5.785  0.6620 -0.2627  0.0845
22668SOL    HW269446   0.090   3.868   5.932  0.4783  0.3216  0.1596
22669SOL     OW69447   7.780   4.083  11.231 -0.0822  0.4380 -0.0066
22669SOL    HW169448   7.706   4.057  11.286 -1.0486  0.5710 -1.2015
22669SOL    HW269449   7.777   4.179  11.231 -1.4714  0.4469 -2.0323
22670SOL     OW69450   3.953   0.996   8.089 -0.0921 -0.3852 -0.2414
22670SOL    HW169451   3.979   0.916   8.136  0.4544  0.4168  0.8600
22670SOL    HW269452   4.036   1.034   8.061 -0.3679 -0.3257 -0.9918
22671SOL     OW69453   4.710   1.897   6.190  0.0463  0.4986 -0.1233
22671SOL    HW169454   4.742   1.809   6.167 -0.7317  0.3748 -0.7593
22671SOL    HW269455   4.721   1.902   6.285 -0.7351 -0.6344  0.0448
22672SOL     OW69456   1.532   2.276  12.229  0.5585  0.7203 -0.1739
22672SOL    HW169457   1.475   2.285  12.153  1.5636 -0.6745 -1.1471
22672SOL    HW269458   1.482   2.313  12.302 -0.4849  1.9765 -1.4662
22673SOL     OW69459   0.020   3.331   0.980 -0.8097  0.0846 -0.0421
22673SOL    HW169460   0.091   3.280   1.019 -0.0663  0.6254 -0.6569
22673SOL    HW269461  -0.046   3.338   1.049 -0.4300 -0.7489  0.4103
22674SOL     OW69462   6.812   3.189   6.071 -0.7228  0.3642  0.4977
22674SOL    HW169463   6.822   3.209   5.978 -1.3853  1.2992  0.6184
22674SOL    HW269464   6.719   3.197   6.088 -0.5669  0.5251  1.3162
22675SOL     OW69465   0.161   1.696   9.314 -0.6441  0.1954 -0.0069
22675SOL    HW169466   0.143   1.776   9.363 -1.2546  0.6275 -0.8930
22675SOL    HW269467   0.137   1.625   9.373 -0.5748  0.6756  0.6106
22676SOL     OW69468   0.460   1.642   9.516 -0.5285  0.0391  0.4736
22676SOL    HW169469   0.540   1.694   9.507 -0.3523  0.4566  3.4316
22676SOL    HW269470   0.491   1.552   9.518  0.2758  0.2475  3.5869
22677SOL     OW69471   1.656   0.723   0.935 -0.4229  0.4464 -0.3208
22677SOL    HW169472   1.575   0.760   0.899 -0.4461 -0.8104 -1.6854
22677SOL    HW269473   1.674   0.775   1.013 -0.8080  2.8437 -1.7427
22678SOL     OW69474   1.812   5.409   1.118  0.1958 -0.0981 -0.1904
22678SOL    HW169475   1.877   5.365   1.173  0.6031  1.1160  0.3231
22678SOL    HW269476   1.863   5.469   1.064 -0.5512  1.7380  1.0453
22679SOL     OW69477   3.177   1.683   1.764 -0.1603  0.4435 -0.2609
22679SOL    HW169478   3.188   1.732   1.682 -1.7415 -0.1615 -0.8603
22679SOL    HW269479   3.176   1.591   1.737 -2.9116  0.2892  0.0829
22680SOL     OW69480   4.335   2.743  10.871  0.1185 -0.1030 -0.5202
22680SOL    HW169481   4.414   2.720  10.919  0.0008  2.2462  0.9971
22680SOL    HW269482   4.265   2.695  10.914  0.2748  0.5592  0.5031
22681SOL     OW69483   5.785   5.620   5.684 -0.5708 -0.7861 -0.1013
22681SOL    HW169484   5.876   5.619   5.713 -0.8043  2.3172  1.1064
22681SOL    HW269485   5.790   5.627   5.589  0.4636 -0.4577 -0.0337
22682SOL     OW69486   1.408   2.868   7.756  0.2885 -0.2291 -0.1940
22682SOL    HW169487   1.502   2.888   7.758  0.2551 -0.1156  1.7564
22682SOL    HW269488   1.372   2.929   7.692  1.6824 -1.0348 -1.8475
22683SOL     OW69489   2.231   2.442   1.291 -0.2233  0.0514  0.7469
22683SOL    HW169490   2.284   2.366   1.315  3.8736  1.5126 -2.5851
22683SOL    HW269491   2.283   2.518   1.320 -1.1546  1.5914 -1.3315
22684SOL     OW69492   4.051   4.627   0.981  0.0604 -0.5597 -0.2998
22684SOL    HW169493   4.118   4.586   1.035  0.7233  1.6099  0.6079
22684SOL    HW269494   3.968   4.595   1.018  0.5177  0.2060  1.5104
22685SOL     OW69495   6.348   0.136   2.655 -0.0997 -0.1034 -0.2653
22685SOL    HW169496   6.389   0.107   2.573  0.7211 -0.7057  0.3354
22685SOL    HW269497   6.417   0.127   2.721 -0.4804  1.1881  0.3531
22686SOL     OW69498   6.978   2.716   8.732  0.1618  0.1973  0.4700
22686SOL    HW169499   7.041   2.783   8.707 -0.4767  0.3617 -0.7487
22686SOL    HW269500   7.027   2.634   8.724  0.0218  0.2495 -1.2817
22687SOL     OW69501   5.793   3.905   3.631 -0.4421 -0.3581  0.0461
22687SOL    HW169502   5.867   3.845   3.633  1.8370  2.1988  3.9212
22687SOL    HW269503   5.822   3.978   3.576 -0.6777  0.0567  0.4693
22688SOL     OW69504   7.511   3.919   5.519  0.5849  0.8624 -0.2104
22688SOL    HW169505   7.545   3.853   5.580  1.9114  1.0683 -0.7077
22688SOL    HW269506   7.585   3.976   5.501  0.5187  0.2482 -2.7613
22689SOL     OW69507   6.047   1.249   4.896  0.7149 -0.0250  0.1350
22689SOL    HW169508   6.038   1.279   4.805  0.6419  1.6071  0.6564
22689SOL    HW269509   6.119   1.185   4.893  0.2662 -0.4964 -1.1738
22690SOL     OW69510   3.885   0.729  12.088  0.3920 -0.3345 -0.3263
22690SOL    HW169511   3.812   0.755  12.032 -0.0673 -0.4017  0.2279
22690SOL    HW269512   3.941   0.807  12.091 -0.3881  0.2276  0.3908
22691SOL     OW69513   6.650   1.038   2.343 -0.2507  0.4527  0.7204
22691SOL    HW169514   6.565   0.994   2.347  0.2286 -0.4518  1.2217
22691SOL    HW269515   6.679   1.042   2.434  0.8213 -0.4082  0.4348
22692SOL     OW69516   1.458   6.900  11.041  0.2963  0.2686 -0.1249
22692SOL    HW169517   1.508   6.851  11.105  0.5004 -0.7328 -1.0210
22692SOL    HW269518   1.494   6.989  11.045 -0.7013  0.6319  2.1630
22693SOL     OW69519   4.863   3.631   2.947  0.1678 -0.1459  0.4192
22693SOL    HW169520   4.816   3.557   2.908 -1.1706  1.0598 -0.3571
22693SOL    HW269521   4.952   3.623   2.914 -0.8029  0.5756 -2.7154
22694SOL     OW69522   3.951   2.743  11.868 -0.5203  0.0314  0.4584
22694SOL    HW169523   3.915   2.709  11.787 -0.7583 -0.1247  0.6278
22694SOL    HW269524   3.918   2.833  11.873  0.5691  0.5028 -0.2719
22695SOL     OW69525   1.406   2.983   1.163 -0.2563  0.0130 -0.0031
22695SOL    HW169526   1.348   3.049   1.126  0.8588  0.9271 -0.1794
22695SOL    HW269527   1.398   2.996   1.258 -0.4516  0.0440 -0.0233
22696SOL     OW69528   2.740   3.575   2.698 -0.0250  0.3526 -0.5551
22696SOL    HW169529   2.645   3.561   2.704  0.1998 -0.7383  1.8603
22696SOL    HW269530   2.770   3.513   2.632 -0.9293  0.4618 -1.0903
22697SOL     OW69531   4.140   7.870  11.337  0.2463 -0.0734  0.1985
22697SOL    HW169532   4.208   7.932  11.363  0.8301 -0.2983 -0.7475
22697SOL    HW269533   4.065   7.925  11.314  0.2056  0.1924  0.9356
22698SOL     OW69534   5.023   7.208   7.909 -0.2936  0.3315 -0.1370
22698SOL    HW169535   5.077   7.188   7.832  0.3888 -0.7970  0.6111
22698SOL    HW269536   4.933   7.205   7.877  0.0268  1.0971 -1.1564
22699SOL     OW69537   0.194   6.149   1.713 -0.1106 -0.1752 -0.0501
22699SOL    HW169538   0.180   6.080   1.778 -0.6278  1.2580  1.4115
22699SOL    HW269539   0.260   6.112   1.654  0.8356 -1.3216  1.6132
22700SOL     OW69540   7.869   5.000   6.953 -0.0447  0.4804 -0.0152
22700SOL    HW169541   7.840   4.982   7.043  0.0753 -0.8788 -0.2278
22700SOL    HW269542   7.962   5.019   6.961 -0.4642  2.6541  0.3966
22701SOL     OW69543   7.957   4.540   3.192  0.1028 -0.1484 -0.3206
22701SOL    HW169544   7.952   4.634   3.206  0.3769  0.3019 -2.8583
22701SOL    HW269545   8.050   4.523   3.177 -0.1952 -0.4096 -2.0828
22702SOL     OW69546   7.610   5.195  10.223 -0.3415 -0.2282 -0.0876
22702SOL    HW169547   7.611   5.254  10.148  0.6044  0.3393  0.3555
22702SOL    HW269548   7.641   5.111  10.188  1.3185  0.3499 -0.1119
22703SOL     OW69549   6.373   7.208   6.064 -0.2685  0.1994  0.3582
22703SOL    HW169550   6.377   7.292   6.018 -1.1118  0.8911  1.4837
22703SOL    HW269551   6.295   7.166   6.028  0.3874 -0.3010 -0.5052
22704SOL     OW69552   7.931   5.449   3.983 -0.5544 -0.2424  0.1755
22704SOL    HW169553   7.964   5.466   4.071 -0.8157 -1.0055  0.4313
22704SOL    HW269554   7.873   5.524   3.964 -1.5690 -0.7377  1.2084
22705SOL     OW69555   1.753   2.135   9.307 -0.0948 -0.0730 -0.0238
22705SOL    HW169556   1.670   2.185   9.306  1.2088  2.2758  0.5952
22705SOL    HW269557   1.778   2.129   9.215 -0.0030  0.9844 -0.0833
22706SOL     OW69558   2.845   2.676   7.564 -0.6766  0.1573  0.6409
22706SOL    HW169559   2.800   2.756   7.588  1.5972  2.1073 -1.0630
22706SOL    HW269560   2.928   2.679   7.612 -1.2190 -2.1049  1.8729
22707SOL     OW69561   5.036   6.072   1.926  0.2099 -0.3276  0.0733
22707SOL    HW169562   5.082   5.992   1.899 -0.6063 -0.3402 -1.3555
22707SOL    HW269563   4.943   6.047   1.925 -0.0509  0.6429 -0.3768
22708SOL     OW69564   0.808   2.205   3.186  0.1497  0.2004 -0.0667
22708SOL    HW169565   0.860   2.168   3.258  0.2414  0.1826 -0.1410
22708SOL    HW269566   0.814   2.139   3.117 -0.7615 -0.2391  0.2629
22709SOL     OW69567   3.592   6.952  12.136 -0.0575 -0.3995  0.8415
22709SOL    HW169568   3.536   6.874  12.125 -2.4080  1.3580 -1.0490
22709SOL    HW269569   3.664   6.937  12.075 -1.2299 -0.5613 -0.5842
22710SOL     OW69570   5.861   4.020   9.346 -0.0852 -0.3063  0.2753
22710SOL    HW169571   5.909   4.083   9.293 -0.1471 -1.2878 -0.9806
22710SOL    HW269572   5.915   3.940   9.344 -1.7955 -1.4876 -1.3116
22711SOL     OW69573   4.298   5.982   5.700 -0.1557  0.5089 -0.1186
22711SOL    HW169574   4.290   5.981   5.605 -0.0897 -1.8738 -0.1654
22711SOL    HW269575   4.289   6.074   5.724  0.1216  1.2123 -2.4368
22712SOL     OW69576   2.949   4.742   5.072 -0.2002  0.0031  0.2915
22712SOL    HW169577   2.922   4.666   5.020  1.1755 -0.2720 -0.0490
22712SOL    HW269578   2.925   4.817   5.018  0.4994 -0.2628 -0.4101
22713SOL     OW69579   1.551   3.645  10.116 -0.7491 -0.3957 -0.0092
22713SOL    HW169580   1.638   3.613  10.140 -1.3693 -0.4000  2.5411
22713SOL    HW269581   1.563   3.738  10.100 -0.3618 -0.2312  1.1354
22714SOL     OW69582   2.381   3.354   1.572  0.2525  0.5762  0.0264
22714SOL    HW169583   2.417   3.353   1.661 -0.0173  2.0127  0.1668
22714SOL    HW269584   2.287   3.345   1.584  0.2715  0.0954 -0.1615
22715SOL     OW69585   0.143   6.140   8.738 -0.0898 -0.0071 -0.2424
22715SOL    HW169586   0.137   6.234   8.720  0.5700  0.1503  0.3196
22715SOL    HW269587   0.065   6.120   8.789 -0.9255 -0.0449 -1.4879
22716SOL     OW69588   6.227   1.285  11.409 -0.2711  0.2535  0.7748
22716SOL    HW169589   6.178   1.248  11.482 -3.0753  0.2232 -0.9755
22716SOL    HW269590   6.228   1.217  11.343  0.2462  1.0518 -0.0676
22717SOL     OW69591   6.871   0.432   7.416  0.1125 -0.0249 -1.1546
22717SOL    HW169592   6.798   0.415   7.476  1.0776 -2.1011 -0.4706
22717SOL    HW269593   6.853   0.377   7.340  2.3515 -3.0182  0.2834
22718SOL     OW69594   1.015   5.294   1.711 -0.3702  0.3847 -0.3352
22718SOL    HW169595   1.052   5.217   1.668 -0.0804 -0.0561  0.6850
22718SOL    HW269596   1.010   5.360   1.641 -0.2918 -0.4362 -1.1347
22719SOL     OW69597   1.260   0.742  11.941  0.0635 -0.6521  0.1424
22719SOL    HW169598   1.244   0.740  11.847  1.0551 -0.0768 -0.0485
22719SOL    HW269599   1.310   0.662  11.959 -0.5843 -1.0363  0.2822
22720SOL     OW69600   3.463   7.510   8.930 -0.0686  0.0702 -0.2994
22720SOL    HW169601   3.558   7.500   8.933  0.0771  1.3503  1.0830
22720SOL    HW269602   3.448   7.585   8.872 -0.0929  0.8509  0.6802
22721SOL     OW69603   0.739   7.510   4.621  0.4764 -0.1283  0.0659
22721SOL    HW169604   0.679   7.491   4.549 -0.0392  0.4831  0.3239
22721SOL    HW269605   0.688   7.496   4.700  1.2587 -1.5176  0.3575
22722SOL     OW69606   6.145   1.040   6.124 -0.4718 -0.1141 -0.7222
22722SOL    HW169607   6.203   1.068   6.053 -0.7402 -0.3099 -1.0236
22722SOL    HW269608   6.057   1.060   6.093 -0.5453  0.6929 -0.0352
22723SOL     OW69609   0.759   7.753   1.478  0.5062  0.0967 -0.0092
22723SOL    HW169610   0.691   7.705   1.524 -0.2387  1.2400  0.1195
22723SOL    HW269611   0.824   7.774   1.545  0.1678  0.4361  0.2159
22724SOL     OW69612   3.369   1.147   2.349 -0.1005  0.5262 -0.1823
22724SOL    HW169613   3.299   1.168   2.411  0.0144 -0.9958  0.5005
22724SOL    HW269614   3.445   1.196   2.379 -0.2980  0.5088  0.3423
22725SOL     OW69615   5.474   7.037   7.672 -0.0816 -0.0013  0.0055
22725SOL    HW169616   5.486   6.943   7.657 -1.7414 -0.4621  1.2955
22725SOL    HW269617   5.559   7.067   7.704  0.8740 -0.7506 -1.6511
22726SOL     OW69618   5.392   3.155   3.863  0.3518 -1.2119 -0.1319
22726SOL    HW169619   5.379   3.227   3.925  2.1495 -0.1813 -0.8789
22726SOL    HW269620   5.445   3.091   3.911  1.4800 -0.5530 -0.4585
22727SOL     OW69621   0.856   0.132  11.765  0.6568  0.1317 -0.2867
22727SOL    HW169622   0.884   0.048  11.729  0.7285  0.2240 -0.4453
22727SOL    HW269623   0.868   0.195  11.694 -0.6916  0.0508 -0.6045
22728SOL     OW69624   7.694   4.797   0.351  0.5027  0.0420 -0.2049
22728SOL    HW169625   7.771   4.810   0.296  1.4069 -4.1813 -0.2383
22728SOL    HW269626   7.632   4.750   0.295 -0.1074 -0.9066  1.2058
22729SOL     OW69627   6.925   7.568   1.473  0.1330 -0.3314 -0.0656
22729SOL    HW169628   6.908   7.659   1.496 -0.6373 -0.6652  0.7284
22729SOL    HW269629   7.015   7.568   1.440  1.5256  0.1487  3.3723
22730SOL     OW69630   5.477   2.346   6.628 -0.4110  0.1972 -0.4565
22730SOL    HW169631   5.449   2.264   6.586 -1.0608  0.9765 -1.5722
22730SOL    HW269632   5.501   2.319   6.717  2.9345 -1.9091 -1.7549
22731SOL     OW69633   3.354   0.785   1.679 -0.3115  0.3186  0.0792
22731SOL    HW169634   3.373   0.692   1.692 -0.8305  0.4030  1.5636
22731SOL    HW269635   3.439   0.823   1.655 -0.3454 -0.7359 -1.9900
22732SOL     OW69636   1.598   4.791  11.986 -0.3943  0.0326  0.0357
22732SOL    HW169637   1.611   4.816  12.077 -0.4808  0.8922 -0.1773
22732SOL    HW269638   1.563   4.870  11.944  1.7339  0.3867 -1.2198
22733SOL     OW69639   5.399   0.706   1.127  0.4475  0.1527  0.1664
22733SOL    HW169640   5.431   0.775   1.070 -0.4109  0.1883 -0.2844
22733SOL    HW269641   5.391   0.629   1.070  3.0017 -0.8430  0.9947
22734SOL     OW69642   6.326   6.039  10.280 -0.3287 -0.4867 -0.0876
22734SOL    HW169643   6.419   6.024  10.262  0.3847  2.9780  0.1608
22734SOL    HW269644   6.284   6.027  10.195  0.7147  0.2968 -0.7345
22735SOL     OW69645   1.667   5.324   4.014  0.1862 -0.2781 -0.2713
22735SOL    HW169646   1.649   5.258   4.081 -0.7411 -0.0233 -0.2578
22735SOL    HW269647   1.672   5.406   4.063 -1.8887  0.1249 -0.6243
22736SOL     OW69648   4.399   7.897  11.003 -0.1286 -0.6259 -0.2157
22736SOL    HW169649   4.359   7.840  11.069 -1.0615  0.5252  0.2527
22736SOL    HW269650   4.432   7.972  11.053 -1.2777  0.4973 -1.0736
22737SOL     OW69651   7.530   7.354   7.636  0.1437 -0.0975 -0.0828
22737SOL    HW169652   7.581   7.373   7.557  2.0766  1.1030  1.3928
22737SOL    HW269653   7.480   7.434   7.652  0.8265  0.1799  0.6831
22738SOL     OW69654   4.690   4.218   5.112  0.7868  0.1413  0.3751
22738SOL    HW169655   4.733   4.195   5.194 -0.1578 -0.5382  0.6945
22738SOL    HW269656   4.698   4.140   5.058  0.3833  0.1769  0.2617
22739SOL     OW69657   2.533   3.786   0.681  0.0395  0.6925 -0.5662
22739SOL    HW169658   2.565   3.744   0.602  0.6200  0.5294 -0.2496
22739SOL    HW269659   2.450   3.826   0.655 -1.1007 -1.5663 -0.5950
22740SOL     OW69660   0.030   7.855   5.173  0.1891 -0.2514 -0.2196
22740SOL    HW169661   0.079   7.885   5.250  1.6344 -1.2475 -0.6903
22740SOL    HW269662  -0.005   7.770   5.199  0.9612 -0.7460 -0.7331
22741SOL     OW69663   6.266   7.821   4.972  0.2043  0.2746  0.1291
22741SOL    HW169664   6.305   7.863   5.048  1.5594  1.4657 -1.1545
22741SOL    HW269665   6.204   7.757   5.008  2.0670 -0.4533  2.2334
22742SOL     OW69666   7.719   3.873   3.117 -0.2184 -0.1679  0.5290
22742SOL    HW169667   7.801   3.886   3.069  0.0161 -0.5691  0.8167
22742SOL    HW269668   7.681   3.960   3.122 -0.2757 -0.1255 -0.4358
22743SOL     OW69669   5.016   0.769  12.363 -0.4472  0.0840  0.3003
22743SOL    HW169670   4.954   0.836  12.392 -1.6967 -0.6428 -0.5829
22743SOL    HW269671   5.089   0.819  12.325 -2.9288  1.1440 -3.7748
22744SOL     OW69672   4.695   1.719   2.143 -0.1610 -0.0280  0.1382
22744SOL    HW169673   4.695   1.666   2.064  1.6695  0.8562 -0.5013
22744SOL    HW269674   4.638   1.793   2.123 -0.1668 -0.1075 -0.1379
22745SOL     OW69675   7.184   0.833   2.211  0.1984 -0.0831  0.2846
22745SOL    HW169676   7.181   0.901   2.278  0.9404  0.2238  0.0041
22745SOL    HW269677   7.100   0.787   2.221  0.6569 -0.6148  2.0116
22746SOL     OW69678   2.756   0.093  11.239  0.4123  0.1861  0.3567
22746SOL    HW169679   2.776   0.073  11.148 -3.2175 -1.5553 -0.2154
22746SOL    HW269680   2.720   0.182  11.237 -2.0268 -0.7514 -0.4258
22747SOL     OW69681   1.041   7.051   2.757  0.2642 -0.2008 -0.1710
22747SOL    HW169682   1.122   7.081   2.799 -0.7632  0.4986  1.3925
22747SOL    HW269683   1.026   6.964   2.794 -0.0679 -0.0378  0.0786
22748SOL     OW69684   2.480   2.267   1.270 -0.2060  0.2697 -0.1667
22748SOL    HW169685   2.569   2.302   1.264 -0.0964 -0.1181 -1.0006
22748SOL    HW269686   2.438   2.295   1.189 -1.1186  1.1652  0.6021
22749SOL     OW69687   6.078   6.639   0.512  0.9859 -0.2162 -0.4603
22749SOL    HW169688   6.037   6.556   0.490  0.2870  0.1328 -0.5165
22749SOL    HW269689   6.004   6.699   0.527  1.4733  0.5443 -1.0125
22750SOL     OW69690   0.541   2.745   6.371 -0.8375  0.7456  0.2121
22750SOL    HW169691   0.544   2.670   6.312 -2.2110  0.8566 -0.0184
22750SOL    HW269692   0.616   2.733   6.430  0.0193  0.1638 -0.9695
22751SOL     OW69693   1.194   7.542   1.358  0.0871 -0.5891 -0.0809
22751SOL    HW169694   1.131   7.515   1.424 -2.4876  1.0553 -1.6951
22751SOL    HW269695   1.177   7.635   1.346  0.5876 -0.7760 -2.8574
22752SOL     OW69696   5.832   0.516   9.358  0.7892  0.7294 -0.1485
22752SOL    HW169697   5.821   0.420   9.355  1.0205  0.6546  0.9970
22752SOL    HW269698   5.764   0.549   9.298  0.3884 -0.1257 -0.1879
22753SOL     OW69699   6.146   3.714   7.581  0.0982  0.0212 -0.3568
22753SOL    HW169700   6.061   3.755   7.595  0.4347  0.0785  1.8266
22753SOL    HW269701   6.177   3.692   7.668  2.0718 -0.5471 -1.1413
22754SOL     OW69702   6.800   5.631   6.348 -0.1749 -0.2645 -0.4334
22754SOL    HW169703   6.713   5.634   6.386  0.1601  0.0624  0.3225
22754SOL    HW269704   6.858   5.610   6.421  0.5313  0.7875 -0.6658
22755SOL     OW69705   6.091   4.961   2.174  0.3421  0.2005 -0.2144
22755SOL    HW169706   6.075   5.034   2.234 -0.2769 -0.4891  0.4908
22755SOL    HW269707   6.141   4.999   2.102 -0.3145  1.4024 -0.0591
22756SOL     OW69708   7.404   2.150   8.963  0.6235  0.7693 -0.8867
22756SOL    HW169709   7.497   2.151   8.944  1.0816  0.7897  1.0768
22756SOL    HW269710   7.381   2.057   8.968  1.2838  0.6623  1.5611
22757SOL     OW69711   3.836   4.031   6.566 -0.3944  0.0368  0.6179
22757SOL    HW169712   3.747   4.059   6.548 -0.1142  1.0299  0.7234
22757SOL    HW269713   3.891   4.106   6.539  0.2870  0.1151  2.1350
22758SOL     OW69714   3.045   5.655  10.939 -0.0883 -0.8531 -0.9268
22758SOL    HW169715   3.097   5.731  10.965 -0.4713  0.0951 -2.7722
22758SOL    HW269716   3.085   5.625  10.858  0.7961 -3.4229  0.3536
22759SOL     OW69717   3.027   2.128  10.753  0.2620  0.0887  0.4262
22759SOL    HW169718   3.032   2.206  10.809 -0.9324  0.1825  0.4398
22759SOL    HW269719   2.983   2.159  10.674  1.8652 -0.0626 -0.5674
22760SOL     OW69720   5.760   4.017   2.152 -0.3929 -0.0638 -0.5756
22760SOL    HW169721   5.828   3.951   2.168 -0.8101  0.0047  1.8442
22760SOL    HW269722   5.761   4.071   2.231  0.1068  3.0569 -2.5685
22761SOL     OW69723   5.362   6.739   8.984  0.3226 -0.1369 -0.3310
22761SOL    HW169724   5.288   6.742   9.046  1.0787  1.1593  0.5542
22761SOL    HW269725   5.341   6.806   8.919  1.0784  0.8329  0.3886
22762SOL     OW69726   5.289   2.716  11.090  0.0693  0.6658  0.3767
22762SOL    HW169727   5.333   2.678  11.167 -0.8656  0.6608  0.9150
22762SOL    HW269728   5.308   2.809  11.095 -0.0272  0.6727  0.6440
22763SOL     OW69729   2.010   0.462  12.186  0.3452  0.2836 -0.0222
22763SOL    HW169730   1.954   0.460  12.109  0.7511  0.9450 -0.3448
22763SOL    HW269731   2.084   0.407  12.164  0.9638  1.2774 -0.5216
22764SOL     OW69732   2.671   1.381  10.450 -0.1600 -0.0488  0.1347
22764SOL    HW169733   2.753   1.349  10.415 -0.6501 -2.0412  0.7078
22764SOL    HW269734   2.694   1.421  10.534  0.0696 -1.9160  0.9927
22765SOL     OW69735   4.563   2.762   9.878 -0.0571 -0.0734  0.3840
22765SOL    HW169736   4.486   2.728   9.832 -1.3192  1.8834  0.9202
22765SOL    HW269737   4.609   2.815   9.814  0.8934 -1.2547  0.0608
22766SOL     OW69738   5.990   4.168   2.866 -0.2381  0.2434 -0.2475
22766SOL    HW169739   5.920   4.221   2.903  1.0504  1.9575 -0.1421
22766SOL    HW269740   5.957   4.078   2.870 -0.9312  0.5016  3.3626
22767SOL     OW69741   5.693   7.432   0.071 -0.2323  0.0221  0.0439
22767SOL    HW169742   5.675   7.516   0.029 -1.3926 -0.1788  0.1083
22767SOL    HW269743   5.714   7.374  -0.002  0.6456  0.3745  0.0039
22768SOL     OW69744   2.609   2.992   6.952 -0.1177 -0.0620 -0.8291
22768SOL    HW169745   2.527   2.944   6.964 -0.4816  0.1545 -2.2671
22768SOL    HW269746   2.594   3.046   6.874  0.8543  1.1546 -0.2082
22769SOL     OW69747   1.387   1.990   7.685 -0.2889 -0.0598  0.2896
22769SOL    HW169748   1.430   2.076   7.683 -2.7886  1.3311  1.5028
22769SOL    HW269749   1.328   1.991   7.610 -0.1809 -0.8321  0.1848
22770SOL     OW69750   4.189   1.794  10.589 -0.5604 -0.1166 -0.8704
22770SOL    HW169751   4.125   1.859  10.616 -0.6352 -0.3467 -0.4895
22770SOL    HW269752   4.208   1.815  10.497 -0.6564  0.3768 -0.7779
22771SOL     OW69753   2.327   0.803   2.751  0.0398  0.1089 -0.1924
22771SOL    HW169754   2.277   0.723   2.766  1.0410 -0.8788 -1.8789
22771SOL    HW269755   2.267   0.873   2.778 -0.9469 -1.1484  1.1024
22772SOL     OW69756   0.005   4.974   1.042  0.3279 -0.3537  0.5033
22772SOL    HW169757   0.020   5.063   1.012  2.1225 -1.5659 -2.7010
22772SOL    HW269758  -0.080   4.950   1.005  0.7472 -0.5868 -0.3187
22773SOL     OW69759   1.656   5.338  10.775  0.4689  0.2273  0.1161
22773SOL    HW169760   1.712   5.322  10.851  0.2316  1.0987  0.4823
22773SOL    HW269761   1.567   5.326  10.808  0.3862  0.0890 -0.1549
22774SOL     OW69762   4.040   0.579   1.694  0.0395  0.2574  0.0324
22774SOL    HW169763   4.025   0.621   1.779  0.5455 -1.3387  0.9550
22774SOL    HW269764   4.135   0.582   1.683 -0.0377  0.5947 -0.5641
22775SOL     OW69765   0.254   2.430   2.298 -0.1126 -0.2515 -0.8000
22775SOL    HW169766   0.342   2.422   2.335 -0.2014 -0.2933 -0.6020
22775SOL    HW269767   0.262   2.392   2.210  0.3814  0.8817 -1.2649
22776SOL     OW69768   7.846   0.565  12.384 -0.2573 -0.1723 -0.0638
22776SOL    HW169769   7.783   0.596  12.318 -0.7628 -0.5240  0.2423
22776SOL    HW269770   7.814   0.603  12.466  1.6734  2.2042 -0.2888
22777SOL     OW69771   3.417   1.500   2.220 -0.4971 -0.2533  0.1393
22777SOL    HW169772   3.499   1.516   2.267 -0.0373  0.2215 -0.7991
22777SOL    HW269773   3.404   1.577   2.166 -2.7602  0.7107  1.8750
22778SOL     OW69774   1.083   5.077   1.891  0.6147 -0.1868  0.5859
22778SOL    HW169775   1.149   5.037   1.835  0.2566  0.2068 -0.1302
22778SOL    HW269776   1.032   5.133   1.833  0.7358  0.8632  1.4554
22779SOL     OW69777   4.085   1.055  12.410 -0.3350 -0.2818  0.4396
22779SOL    HW169778   4.167   1.100  12.428 -0.1663  0.7246 -2.2932
22779SOL    HW269779   4.111   0.974  12.367 -0.7211  0.4975 -1.3457
22780SOL     OW69780   1.094   6.988   8.735 -0.2152  0.9606  0.2873
22780SOL    HW169781   1.064   6.902   8.707  1.4694  0.2388  0.5192
22780SOL    HW269782   1.038   7.011   8.809 -0.8617  0.1949  0.0433
22781SOL     OW69783   4.923   7.422   9.484 -0.3009  0.3487 -0.3108
22781SOL    HW169784   5.004   7.393   9.526 -0.9467 -1.8130 -0.4247
22781SOL    HW269785   4.952   7.478   9.412  1.2693 -1.8576 -1.5336
22782SOL     OW69786   1.749   4.817   8.975 -0.3127 -0.4476  0.1945
22782SOL    HW169787   1.815   4.869   8.928 -1.3829  0.5908 -0.2039
22782SOL    HW269788   1.791   4.732   8.988  0.3316 -0.5245 -1.9370
22783SOL     OW69789   5.135   1.182   0.661  0.2364  0.5988 -0.0333
22783SOL    HW169790   5.134   1.278   0.657  1.6151  0.7114  1.3814
22783SOL    HW269791   5.228   1.159   0.663 -0.0307 -0.8929 -1.8505
22784SOL     OW69792   0.391   6.446   6.094 -0.1118 -0.5177  0.2467
22784SOL    HW169793   0.430   6.505   6.030  1.0732  1.3011  2.5169
22784SOL    HW269794   0.457   6.377   6.106 -1.1950 -2.0759 -1.8599
22785SOL     OW69795   7.699   6.073   3.595  0.3197  0.1535 -0.3229
22785SOL    HW169796   7.751   6.117   3.528 -0.9777  0.1872 -1.3474
22785SOL    HW269797   7.651   6.143   3.639  0.9666  0.1032  0.5007
22786SOL     OW69798   1.911   5.002   6.933 -0.3378 -0.0625  0.7710
22786SOL    HW169799   1.931   5.091   6.902  1.5869 -0.6934  0.0552
22786SOL    HW269800   1.820   5.007   6.961 -0.7153  1.7729 -0.5613
22787SOL     OW69801   6.784   7.815   7.302 -0.0605  0.3286  0.2345
22787SOL    HW169802   6.781   7.905   7.270  1.3497 -0.3745 -2.1882
22787SOL    HW269803   6.867   7.808   7.349  1.4213 -0.3656 -2.2547
22788SOL     OW69804   0.238   4.559  10.751 -0.0334 -0.4674 -0.7813
22788SOL    HW169805   0.276   4.576  10.837 -0.5736 -1.2428 -0.3841
22788SOL    HW269806   0.312   4.568  10.690  0.7417 -1.6376 -0.0600
22789SOL     OW69807   0.503   6.012   2.834 -0.0778 -0.1322 -0.9953
22789SOL    HW169808   0.422   5.963   2.846  0.3636 -1.5054 -3.0699
22789SOL    HW269809   0.556   5.990   2.910 -0.2633 -2.2275 -1.4116
22790SOL     OW69810   3.292   2.245   5.047  0.2001 -0.3468 -0.1854
22790SOL    HW169811   3.315   2.163   5.090  1.3656 -0.1923 -0.4747
22790SOL    HW269812   3.342   2.312   5.093  0.7592 -0.0622 -1.1681
22791SOL     OW69813   5.478   7.450   7.007  0.7818 -0.2963  0.1459
22791SOL    HW169814   5.462   7.374   6.951 -2.7958 -0.8915  1.7316
22791SOL    HW269815   5.500   7.521   6.946 -1.5359 -1.2259 -1.9170
22792SOL     OW69816   5.505   1.989   8.975  0.4602  0.7968  0.3658
22792SOL    HW169817   5.455   2.003   9.055 -1.0659 -1.1123 -0.1552
22792SOL    HW269818   5.567   1.920   8.998  0.0198  0.2463 -0.0577
22793SOL     OW69819   2.487   7.663   2.799 -0.6658  0.2438 -0.1680
22793SOL    HW169820   2.570   7.707   2.819 -0.7700  0.4050 -0.0857
22793SOL    HW269821   2.438   7.727   2.746 -0.8862  0.2964  0.0939
22794SOL     OW69822   2.661   4.668   4.388 -0.0216 -0.1338 -0.4753
22794SOL    HW169823   2.661   4.648   4.294  0.7990 -1.2661 -0.2499
22794SOL    HW269824   2.651   4.583   4.431  1.7058  0.1104  0.4901
22795SOL     OW69825   6.792   7.041   4.028 -0.3281 -0.1670  0.0766
22795SOL    HW169826   6.815   7.117   4.083 -0.5971  0.4899 -0.6962
22795SOL    HW269827   6.764   6.974   4.091 -0.9906  0.6961  0.7410
22796SOL     OW69828   2.527   6.878  10.377  0.0398 -0.6313 -0.0916
22796SOL    HW169829   2.517   6.832  10.294 -0.9307  0.6104 -0.7059
22796SOL    HW269830   2.442   6.871  10.420  0.1607 -0.2170  0.2289
22797SOL     OW69831   3.162   0.278  10.724  0.3878  0.3424  0.2470
22797SOL    HW169832   3.235   0.237  10.677 -0.0649 -0.1460 -0.0404
22797SOL    HW269833   3.203   0.343  10.780  0.9311  1.0969 -0.9813
22798SOL     OW69834   2.899   0.412   8.590  0.3530 -0.7538  0.3139
22798SOL    HW169835   2.866   0.323   8.596 -1.4468 -0.0627  1.3895
22798SOL    HW269836   2.901   0.443   8.681 -0.3335  0.7364 -0.1533
22799SOL     OW69837   3.752   1.744   0.459  0.3894 -0.0247  0.0965
22799SOL    HW169838   3.739   1.837   0.475  2.8984  0.4902 -0.5825
22799SOL    HW269839   3.841   1.726   0.487  0.9472 -1.6109 -2.3496
22800SOL     OW69840   4.680   5.767   2.001 -0.0959  0.0051  1.2850
22800SOL    HW169841   4.723   5.682   1.994  0.8472  0.4118  1.9457
22800SOL    HW269842   4.673   5.783   2.095  1.7520  1.6113  1.2088
22801SOL     OW69843   2.487   0.049  11.104  0.6001  0.4755  0.0739
22801SOL    HW169844   2.551  -0.022  11.108  0.9467  0.8368  1.3703
22801SOL    HW269845   2.539   0.128  11.119 -0.2617  0.7057  2.0348
22802SOL     OW69846   4.961   0.790   0.339  0.1854 -0.8392  0.4897
22802SOL    HW169847   4.982   0.856   0.405 -0.5123  0.7454 -0.7977
22802SOL    HW269848   4.904   0.728   0.385 -1.2223  0.8405  1.1410
22803SOL     OW69849   0.846   0.943  11.760  0.6276 -0.3202  0.1430
22803SOL    HW169850   0.797   0.983  11.689 -1.4630 -1.7430  0.6925
22803SOL    HW269851   0.894   0.871  11.720  2.0254  0.8571 -0.3401
22804SOL     OW69852   1.552   1.795   7.291 -0.4468  0.1020  0.8555
22804SOL    HW169853   1.480   1.758   7.343 -0.5972  1.2317  1.4892
22804SOL    HW269854   1.597   1.854   7.351  2.4737 -2.2538  1.2057
22805SOL     OW69855   0.088   3.366   5.706  0.3312  0.6255  0.1149
22805SOL    HW169856   0.018   3.362   5.771 -0.0224 -1.8520 -0.3150
22805SOL    HW269857   0.163   3.403   5.753 -0.3763  0.4216  1.4463
22806SOL     OW69858   2.261   6.211  10.396 -0.4747  0.2289  0.1385
22806SOL    HW169859   2.241   6.151  10.468  0.1250 -3.3139 -2.3857
22806SOL    HW269860   2.181   6.211  10.343  0.0838  0.3438 -0.7184
22807SOL     OW69861   2.514   5.774   5.623  0.4620 -0.1295 -0.6613
22807SOL    HW169862   2.564   5.853   5.646 -1.2233  1.2826 -1.5835
22807SOL    HW269863   2.581   5.707   5.609  1.8508  0.0928  3.5115
22808SOL     OW69864   7.698   1.353   9.904 -0.3036 -0.0596  0.3101
22808SOL    HW169865   7.667   1.431   9.857  1.1255  1.1674  1.3239
22808SOL    HW269866   7.749   1.305   9.838  0.3716  0.8336  0.1646
22809SOL     OW69867   5.314   3.641   7.434 -0.7025 -0.1209 -0.0195
22809SOL    HW169868   5.308   3.736   7.434  0.2862  0.0011 -2.2059
22809SOL    HW269869   5.223   3.611   7.421 -1.0126  0.5112  0.6696
22810SOL     OW69870   6.860   4.267  10.727  0.0703 -0.1292  0.1380
22810SOL    HW169871   6.818   4.338  10.775 -0.5370 -0.0987 -0.4244
22810SOL    HW269872   6.948   4.261  10.765  0.5119  1.6052 -0.5193
22811SOL     OW69873   2.069   2.283  10.889 -0.1550  0.7625  0.2181
22811SOL    HW169874   2.131   2.269  10.818 -0.6958  0.2268 -0.1579
22811SOL    HW269875   2.037   2.196  10.912  0.1517  0.9030  1.2587
22812SOL     OW69876   2.982   2.186  11.854  0.2857  0.5543 -0.1480
22812SOL    HW169877   2.991   2.096  11.822  1.0976  0.7329 -0.4479
22812SOL    HW269878   2.892   2.191  11.887  0.7493 -0.8631  1.4540
22813SOL     OW69879   3.292   5.724   9.456 -0.2282 -0.6358  0.1118
22813SOL    HW169880   3.318   5.673   9.379 -0.7430 -1.5105  0.5000
22813SOL    HW269881   3.341   5.806   9.448 -0.3974 -0.6336 -1.2358
22814SOL     OW69882   0.676   1.547  11.987 -0.2684  0.2991  0.4034
22814SOL    HW169883   0.662   1.618  11.924 -1.8067 -0.6621 -0.4133
22814SOL    HW269884   0.589   1.510  12.000  0.1755 -0.1759  2.3708
22815SOL     OW69885   4.958   2.090   2.255  0.1839  0.3663  0.5259
22815SOL    HW169886   4.935   1.997   2.251  0.1631  0.3996 -0.3556
22815SOL    HW269887   4.880   2.135   2.225  0.7276  0.5710 -0.6637
22816SOL     OW69888   6.312   0.725   7.935  0.1314 -0.2908 -0.6262
22816SOL    HW169889   6.298   0.718   8.030 -0.2769 -0.2718 -0.6809
22816SOL    HW269890   6.377   0.794   7.925 -0.8721  0.7233 -0.4189
22817SOL     OW69891   5.899   7.467  11.022  0.2090 -0.3445 -0.1201
22817SOL    HW169892   5.860   7.403  11.082 -2.2174 -0.0750 -1.2583
22817SOL    HW269893   5.885   7.552  11.065  0.6259 -0.3417  0.0089
22818SOL     OW69894   7.685   3.556   4.477 -0.0883  0.6491 -0.1432
22818SOL    HW169895   7.758   3.522   4.423 -0.0826 -0.1292  0.3354
22818SOL    HW269896   7.673   3.646   4.447 -0.0701  0.2463 -1.4414
22819SOL     OW69897   4.164   2.317   0.186  0.2913 -0.9347 -0.2816
22819SOL    HW169898   4.143   2.305   0.279  0.2511 -2.4198 -0.4627
22819SOL    HW269899   4.115   2.248   0.141 -0.9713  0.7289 -1.6080
22820SOL     OW69900   0.880   0.182   0.717  0.1200  0.3512  0.8242
22820SOL    HW169901   0.829   0.143   0.646  0.5598 -1.3886  1.3966
22820SOL    HW269902   0.815   0.209   0.782 -0.2214  1.0050  0.2270
22821SOL     OW69903   5.880   0.577   9.974 -0.3437  0.4427 -0.1965
22821SOL    HW169904   5.945   0.549  10.039  0.6780 -0.2582 -1.4883
22821SOL    HW269905   5.849   0.662  10.006  1.8821  1.2358 -0.0106
22822SOL     OW69906   0.360   5.881   7.392 -0.2068  0.2753 -0.3518
22822SOL    HW169907   0.389   5.966   7.427 -0.0378 -0.0446  0.3012
22822SOL    HW269908   0.393   5.881   7.302 -3.1360  2.3412 -1.5749
22823SOL     OW69909   6.308   6.938   1.499  0.0194 -0.0992  0.1992
22823SOL    HW169910   6.362   6.911   1.574  0.2115 -0.4254 -0.0551
22823SOL    HW269911   6.309   6.862   1.441  0.3049  0.3471 -0.3824
22824SOL     OW69912   3.921   3.572   2.713 -0.5900 -0.3796  0.6362
22824SOL    HW169913   3.902   3.666   2.716 -1.4617 -0.4838 -0.6880
22824SOL    HW269914   3.955   3.551   2.801 -3.1827  0.5904  1.9789
22825SOL     OW69915   4.418   3.136   6.372 -0.1161 -0.4319  0.1338
22825SOL    HW169916   4.325   3.159   6.376 -0.2280 -0.7516 -0.4401
22825SOL    HW269917   4.431   3.108   6.281  0.3961 -0.9919  0.3764
22826SOL     OW69918   1.756   3.842   6.283 -0.0846 -0.2260  0.4368
22826SOL    HW169919   1.772   3.891   6.363 -1.6785 -1.0016  1.2827
22826SOL    HW269920   1.666   3.864   6.258  0.0105 -0.8286 -0.5267
22827SOL     OW69921   2.494   2.691   3.051 -0.1604  0.2142 -0.1089
22827SOL    HW169922   2.570   2.678   3.107 -0.6169 -0.8801  0.2815
22827SOL    HW269923   2.420   2.663   3.104 -0.5418 -1.3979 -1.4411
22828SOL     OW69924   4.848   4.428   9.460 -0.1754  0.1996  0.1274
22828SOL    HW169925   4.779   4.494   9.464 -0.1646  0.2522 -0.5005
22828SOL    HW269926   4.839   4.388   9.374  1.6778  1.4198 -0.6923
22829SOL     OW69927   7.494   6.372   0.345  0.2173 -0.2676 -0.8217
22829SOL    HW169928   7.530   6.405   0.428  1.7265  0.5552 -1.7485
22829SOL    HW269929   7.569   6.332   0.302 -1.1376 -3.2751 -0.6149
22830SOL     OW69930   2.876   5.870   4.269  0.2204 -0.4320  0.3822
22830SOL    HW169931   2.839   5.887   4.356 -0.8338 -3.1512  0.5750
22830SOL    HW269932   2.970   5.883   4.280 -0.1412  1.9710  1.1538
22831SOL     OW69933   3.811   1.614   7.874 -0.2278  0.6482  0.3175
22831SOL    HW169934   3.779   1.567   7.797  0.1458  1.5760 -0.4221
22831SOL    HW269935   3.792   1.555   7.947  0.9564 -1.0403 -0.6520
22832SOL     OW69936   6.361   0.915   6.809  0.3021  0.1881 -0.5437
22832SOL    HW169937   6.442   0.891   6.763 -0.7177 -0.2624 -2.1967
22832SOL    HW269938   6.322   0.831   6.833 -0.5543  0.3381 -1.3787
22833SOL     OW69939   5.412   2.007   4.894  0.9967  0.4555  0.1509
22833SOL    HW169940   5.478   1.979   4.956 -0.1698 -0.1987  1.1279
22833SOL    HW269941   5.330   1.972   4.927 -0.2248  3.0707  0.2133
22834SOL     OW69942   6.620   1.458   8.434  0.2723 -0.2872  0.0529
22834SOL    HW169943   6.650   1.367   8.431  1.9297  0.2176  0.1594
22834SOL    HW269944   6.597   1.472   8.526  0.1889 -0.5462  0.0735
22835SOL     OW69945   7.370   6.326  12.318  0.0636 -0.1957  0.6662
22835SOL    HW169946   7.348   6.266  12.247 -0.7211 -0.0365  0.7610
22835SOL    HW269947   7.289   6.333  12.369  0.1698  0.8613  0.7089
22836SOL     OW69948   4.795   2.187   5.595  0.0056  0.5844 -0.0294
22836SOL    HW169949   4.843   2.203   5.676 -0.5683  0.1133  0.4210
22836SOL    HW269950   4.828   2.252   5.534  2.2309 -0.5900 -0.1930
22837SOL     OW69951   0.175   5.468   0.377 -0.1764  0.3336  0.9892
22837SOL    HW169952   0.126   5.423   0.308  0.2487  0.6177  0.4917
22837SOL    HW269953   0.248   5.510   0.331  0.0223  0.6627  1.5916
22838SOL     OW69954   5.621   0.875   9.787 -0.7935 -0.0996  0.5661
22838SOL    HW169955   5.578   0.792   9.766 -2.1092  0.2729  1.5830
22838SOL    HW269956   5.658   0.861   9.874  2.2583 -0.7762 -0.7163
22839SOL     OW69957   4.774   1.424   5.486  0.4739 -0.3196  0.3230
22839SOL    HW169958   4.780   1.349   5.426 -1.5817 -0.4434  0.2183
22839SOL    HW269959   4.696   1.471   5.458  0.6185  0.7623  1.6542
22840SOL     OW69960   0.936   1.401   6.416  0.0013  0.7661  0.2561
22840SOL    HW169961   1.024   1.436   6.401 -0.5326  1.6257 -1.0802
22840SOL    HW269962   0.887   1.426   6.337 -1.0860 -0.8481  0.3760
22841SOL     OW69963   6.049   0.098   3.251  0.0779  0.0132 -0.1801
22841SOL    HW169964   6.001   0.175   3.219 -0.4958 -0.5030 -0.5843
22841SOL    HW269965   6.059   0.042   3.174  3.3409  1.0676 -0.6561
22842SOL     OW69966   1.339   0.187   7.196 -0.3228  0.0582 -0.2713
22842SOL    HW169967   1.371   0.119   7.255 -1.2202  0.7378  1.0719
22842SOL    HW269968   1.411   0.204   7.136  0.7603 -0.4085  0.8681
22843SOL     OW69969   3.846   2.563  12.025  0.2797 -0.5529  0.4054
22843SOL    HW169970   3.880   2.616  11.953 -0.4843  0.3860  0.7216
22843SOL    HW269971   3.873   2.610  12.104  3.0390 -2.6934  0.9013
22844SOL     OW69972   3.990   3.715  10.242 -0.2959 -0.5611 -0.4004
22844SOL    HW169973   3.941   3.717  10.160 -1.8357  2.0462  0.4786
22844SOL    HW269974   4.074   3.757  10.220 -0.2291 -0.9320 -0.8781
22845SOL     OW69975   6.218   3.244   5.396 -0.1770  0.2038 -0.1378
22845SOL    HW169976   6.261   3.160   5.408 -3.0137 -1.2556  0.7529
22845SOL    HW269977   6.242   3.295   5.473  1.2598  0.0873 -0.4920
22846SOL     OW69978   3.681   7.482   4.790 -0.2427 -0.0861 -0.3649
22846SOL    HW169979   3.648   7.570   4.772 -0.3797 -0.1946 -0.6612
22846SOL    HW269980   3.728   7.457   4.711 -2.3620 -1.2651 -1.3376
22847SOL     OW69981   7.032   5.440   0.967 -0.6345 -0.2860  0.1129
22847SOL    HW169982   6.956   5.480   1.008  0.1614 -0.2629  1.6609
22847SOL    HW269983   7.085   5.408   1.041  0.1147 -1.6685 -0.9744
22848SOL     OW69984   2.229   5.126   3.334 -0.1152 -0.0527 -0.0405
22848SOL    HW169985   2.322   5.115   3.316 -0.1423 -0.2356 -0.0707
22848SOL    HW269986   2.193   5.037   3.331 -0.4119  0.0794 -0.7267
22849SOL     OW69987   3.582   4.372   8.146 -0.1030 -0.3487 -0.6081
22849SOL    HW169988   3.555   4.316   8.073 -1.2443 -0.4153 -0.1562
22849SOL    HW269989   3.565   4.462   8.115 -0.1687 -0.3577 -0.6001
22850SOL     OW69990   7.953   1.068   6.752  0.0728 -0.8014  0.0840
22850SOL    HW169991   7.862   1.093   6.741  0.3003 -0.3729 -0.9018
22850SOL    HW269992   7.950   0.979   6.786 -0.7109 -1.2712 -1.1550
22851SOL     OW69993   0.978   6.299   6.862  0.6046 -0.0262  0.7523
22851SOL    HW169994   0.965   6.286   6.956 -0.6395  1.9088  0.9199
22851SOL    HW269995   1.072   6.292   6.849  0.7517 -0.7882  2.0515
22852SOL     OW69996   4.086   5.895   1.692 -0.0410  0.2500  0.3359
22852SOL    HW169997   4.145   5.824   1.670 -0.9009  0.1500 -1.9167
22852SOL    HW269998   4.075   5.889   1.787  0.1019 -2.4715  0.2552
22853SOL     OW69999   6.098   1.249   8.722 -0.3287 -0.2204  0.0266
22853SOL    HW170000   6.181   1.245   8.674 -0.7756 -1.8899 -0.6801
22853SOL    HW270001   6.090   1.163   8.763 -0.2504  0.9264  2.7143
22854SOL     OW70002   4.977   1.434   0.820  0.1713  0.3292 -0.0387
22854SOL    HW170003   4.997   1.512   0.768  1.3532 -0.0234 -0.1309
22854SOL    HW270004   4.914   1.386   0.767  1.9979 -0.4690 -1.6189
22855SOL     OW70005   1.326   7.173   6.206 -0.3285  0.0787 -0.1739
22855SOL    HW170006   1.308   7.209   6.119  0.3932  0.4310 -0.1856
22855SOL    HW270007   1.273   7.225   6.265 -2.0697 -1.1976 -0.5425
22856SOL     OW70008   2.150   1.007  10.563 -0.4470  0.0517  0.3890
22856SOL    HW170009   2.096   1.086  10.573 -1.8100 -0.8805  0.6797
22856SOL    HW270010   2.191   1.017  10.477 -0.1976  1.3021  0.6332
22857SOL     OW70011   2.539   0.507   1.125  0.8069 -0.0335 -0.4711
22857SOL    HW170012   2.534   0.483   1.032 -0.9163  0.2839 -0.4899
22857SOL    HW270013   2.629   0.488   1.150  1.3215 -0.0624 -2.2279
22858SOL     OW70014   7.170   7.395   7.797  0.5138  0.3842 -0.1144
22858SOL    HW170015   7.135   7.459   7.735  0.1213  2.0896  1.7720
22858SOL    HW270016   7.209   7.327   7.742  0.0647  1.7395 -2.2129
22859SOL     OW70017   3.168   0.226   3.675  0.6640 -0.0319 -0.3824
22859SOL    HW170018   3.232   0.168   3.635  0.4812 -0.5955  0.1253
22859SOL    HW270019   3.170   0.204   3.768  0.5848  0.7732 -0.1865
22860SOL     OW70020   2.650   1.936   5.873  0.4615  0.3510  0.2735
22860SOL    HW170021   2.717   1.872   5.899 -0.4711  0.3181  2.9133
22860SOL    HW270022   2.630   1.913   5.782  0.8302 -2.5694  0.8050
22861SOL     OW70023   2.778   7.869   5.066  0.1616  0.3293  0.2816
22861SOL    HW170024   2.826   7.883   4.985  1.7254  0.3110  1.1685
22861SOL    HW270025   2.716   7.799   5.045  2.4032 -1.6424 -0.2047
22862SOL     OW70026   0.014   3.040  12.019  0.7460 -0.3309  0.3185
22862SOL    HW170027  -0.006   3.109  11.955  0.0935  0.9328  1.8150
22862SOL    HW270028  -0.067   2.988  12.024  0.6333 -0.1425  0.4590
22863SOL     OW70029   7.538   0.622   1.484  0.8505 -0.2168 -0.4324
22863SOL    HW170030   7.576   0.668   1.410  0.6997 -0.5803 -0.7401
22863SOL    HW270031   7.459   0.581   1.448  0.2020  0.4588  0.1705
22864SOL     OW70032   0.318   2.286  12.352  0.2921  0.4032  0.0452
22864SOL    HW170033   0.278   2.200  12.366  1.1021 -0.2512 -1.3875
22864SOL    HW270034   0.246   2.341  12.319 -0.4425  0.5811  1.8141
22865SOL     OW70035   5.927   3.703   5.223  0.6634  0.0428 -0.5634
22865SOL    HW170036   5.858   3.638   5.205 -1.3483  1.6472  0.9542
22865SOL    HW270037   5.956   3.683   5.312 -0.1490  1.3324  0.0096
22866SOL     OW70038   1.809   1.271   2.982 -0.1251 -0.0781 -0.3724
22866SOL    HW170039   1.747   1.273   3.055  0.7886 -0.5691  0.4381
22866SOL    HW270040   1.894   1.263   3.023  0.5469  1.0745 -1.4470
22867SOL     OW70041   1.549   1.054   8.609 -0.1886 -0.4151 -0.1017
22867SOL    HW170042   1.542   0.968   8.567  1.1786 -0.9261  0.6542
22867SOL    HW270043   1.505   1.044   8.693  3.0284 -1.5831  1.6400
22868SOL     OW70044   7.687   6.639   6.570 -0.1004  0.0249 -0.5331
22868SOL    HW170045   7.728   6.723   6.592 -0.2612  0.1696 -0.7761
22868SOL    HW270046   7.745   6.573   6.608 -0.9541  0.2748  1.3332
22869SOL     OW70047   7.618   2.848   4.672 -0.1592 -0.1695 -0.1872
22869SOL    HW170048   7.603   2.905   4.747  0.4570 -0.1331 -0.0904
22869SOL    HW270049   7.550   2.780   4.680  0.8518 -1.0683  1.2820
22870SOL     OW70050   7.783   0.121   1.392  0.0073  0.5596 -0.2060
22870SOL    HW170051   7.805   0.177   1.317 -2.4965  0.6525 -0.9624
22870SOL    HW270052   7.828   0.160   1.466  0.6452  1.8656 -1.2535
22871SOL     OW70053   2.611   2.972   0.074 -0.4225  0.5890 -0.4596
22871SOL    HW170054   2.599   2.882   0.044 -0.2404  0.3687  0.1233
22871SOL    HW270055   2.538   3.020   0.033 -1.1827 -0.0357  0.1264
22872SOL     OW70056   6.482   2.218  11.414 -0.1868 -0.0597 -0.2232
22872SOL    HW170057   6.439   2.133  11.410 -1.0600  0.4071 -1.0997
22872SOL    HW270058   6.529   2.217  11.498 -1.1414 -0.9488  0.3235
22873SOL     OW70059   6.355   6.228   9.367  0.3144  0.1529  0.2515
22873SOL    HW170060   6.429   6.235   9.307 -0.4831  3.8138 -0.5480
22873SOL    HW270061   6.366   6.302   9.427 -2.2663  0.3359  0.5972
22874SOL     OW70062   2.450   1.165   2.265  0.5128  0.3271 -0.4215
22874SOL    HW170063   2.432   1.110   2.189 -1.0702 -2.0746  1.5489
22874SOL    HW270064   2.365   1.204   2.287  0.9572  1.0260  0.0966
22875SOL     OW70065   0.105   4.621   1.181 -0.5232  0.2291  0.2887
22875SOL    HW170066   0.178   4.566   1.210 -0.2797  1.5913  2.4536
22875SOL    HW270067   0.040   4.559   1.148  0.6404 -1.1811  0.5400
22876SOL     OW70068   3.471   0.238  12.111  0.6273  0.2680 -0.7926
22876SOL    HW170069   3.559   0.242  12.149  0.5016  1.2324 -0.5903
22876SOL    HW270070   3.478   0.173  12.041  0.7814 -1.8503  1.0518
22877SOL     OW70071   3.696   7.356  11.331 -0.6374 -0.3375 -0.0437
22877SOL    HW170072   3.675   7.415  11.403 -1.8519 -2.3132  1.3130
22877SOL    HW270073   3.735   7.279  11.372 -1.5808 -1.6333 -1.4221
22878SOL     OW70074   1.106   5.853   9.716  0.2599  0.5312 -0.2400
22878SOL    HW170075   1.120   5.783   9.653  1.2632  1.3651 -0.9611
22878SOL    HW270076   1.118   5.811   9.802  2.2652  0.1106 -0.6936
22879SOL     OW70077   5.817   5.285   9.846  0.2955 -0.2402  0.6189
22879SOL    HW170078   5.739   5.277   9.791  0.1878 -1.5975  0.9239
22879SOL    HW270079   5.878   5.337   9.793 -1.1763  1.8262  0.8295
22880SOL     OW70080   4.163   7.657   1.162 -0.2396  0.0997  0.0219
22880SOL    HW170081   4.179   7.752   1.157  1.3102 -0.1463 -0.0620
22880SOL    HW270082   4.097   7.640   1.095  1.0802  0.8019 -1.5145
22881SOL     OW70083   4.392   2.903   2.652 -0.3242  0.4899 -0.9598
22881SOL    HW170084   4.470   2.856   2.683 -0.1265  1.8519  0.7961
22881SOL    HW270085   4.357   2.848   2.582 -0.4825 -2.6069  1.3437
22882SOL     OW70086   5.700   1.899   2.247  0.1181 -0.1507  0.4807
22882SOL    HW170087   5.638   1.865   2.312 -0.1527 -1.3157 -0.3549
22882SOL    HW270088   5.649   1.963   2.198 -0.7496 -1.7053 -0.7560
22883SOL     OW70089   0.967   5.928   4.863  0.1052 -0.0675  0.1074
22883SOL    HW170090   0.924   5.904   4.946 -0.2380  0.4613  0.0845
22883SOL    HW270091   0.897   5.962   4.808  0.5088  0.5955 -0.0133
22884SOL     OW70092   6.069   6.404   1.029  0.1932 -0.1161  0.0401
22884SOL    HW170093   6.025   6.397   1.114  0.6598  2.3467  0.5730
22884SOL    HW270094   6.145   6.459   1.047  1.7957 -1.7320 -1.4925
22885SOL     OW70095   3.328   4.156   0.718  0.0972 -0.1207  0.1487
22885SOL    HW170096   3.254   4.216   0.725  0.9430  0.9140  0.6152
22885SOL    HW270097   3.305   4.083   0.775 -1.5275 -0.9128 -1.4331
22886SOL     OW70098   1.771   4.634   0.686 -0.2159  0.0873 -0.1967
22886SOL    HW170099   1.841   4.631   0.750  0.6047 -0.7341 -1.0978
22886SOL    HW270100   1.698   4.588   0.728 -0.0377  0.4658  0.5347
22887SOL     OW70101   2.180   4.390  10.504  0.5762 -0.1484 -0.4466
22887SOL    HW170102   2.266   4.349  10.502  1.3659  1.3605  0.5166
22887SOL    HW270103   2.191   4.471  10.456 -0.5141 -0.2760 -0.9375
22888SOL     OW70104   0.887   1.072   8.185 -0.0573  0.1162  0.0725
22888SOL    HW170105   0.973   1.081   8.144 -1.1919 -1.1824 -2.8439
22888SOL    HW270106   0.861   1.162   8.206  1.7142  0.5831  0.3910
22889SOL     OW70107   7.797   3.578   8.309 -0.3800 -0.2079 -0.3184
22889SOL    HW170108   7.891   3.584   8.294 -0.3239  0.3026  0.2086
22889SOL    HW270109   7.786   3.499   8.363 -0.1747  0.1249  0.2173
22890SOL     OW70110   6.115   5.196   0.549  0.0627  0.2477  0.5559
22890SOL    HW170111   6.197   5.220   0.505 -1.0013 -0.0678 -1.7724
22890SOL    HW270112   6.048   5.207   0.481 -1.5074 -1.7559  1.6733
22891SOL     OW70113   5.723   0.054  10.568 -0.6800 -0.1068  0.2645
22891SOL    HW170114   5.628   0.066  10.568 -0.6735  0.3420  2.4726
22891SOL    HW270115   5.735  -0.038  10.545 -1.6956 -0.3092  0.4749
22892SOL     OW70116   6.399   4.113   3.627  0.6531  0.4977 -0.2818
22892SOL    HW170117   6.434   4.167   3.697  0.3863 -2.5297  2.4196
22892SOL    HW270118   6.471   4.052   3.606 -0.8498 -1.8986  1.0899
22893SOL     OW70119   6.106   5.493   2.087 -0.0100 -0.0142 -0.9256
22893SOL    HW170120   6.033   5.435   2.106  0.2914 -0.6527 -1.6729
22893SOL    HW270121   6.184   5.443   2.111  0.1734  1.3964  1.8120
22894SOL     OW70122   6.459   3.353   7.237 -0.4844 -0.5655  0.3619
22894SOL    HW170123   6.419   3.431   7.276 -2.4881 -1.6746  0.6621
22894SOL    HW270124   6.409   3.280   7.272 -0.2544 -1.8388 -1.7786
22895SOL     OW70125   7.390   4.872  10.365 -0.1146 -0.1228  0.4372
22895SOL    HW170126   7.307   4.832  10.391 -1.7211  2.9818  0.5997
22895SOL    HW270127   7.376   4.966  10.378  2.6982  0.7048 -1.6037
22896SOL     OW70128   5.483   1.116   9.790  0.5326  0.2964  0.1124
22896SOL    HW170129   5.394   1.089   9.814  0.5291 -1.2629 -1.4758
22896SOL    HW270130   5.526   1.035   9.762  1.3991  1.5061 -2.3473
22897SOL     OW70131   6.778   3.418   6.296 -0.5238  0.3671 -0.0706
22897SOL    HW170132   6.850   3.442   6.239 -0.9865  0.4278 -0.6303
22897SOL    HW270133   6.800   3.458   6.380  1.0620 -1.1879  0.3342
22898SOL     OW70134   2.008   1.892   0.229  0.8402 -0.0719 -0.3402
22898SOL    HW170135   2.020   1.813   0.176  0.1584 -1.0820  0.9617
22898SOL    HW270136   1.926   1.930   0.196 -0.7107 -1.8121  1.2366
22899SOL     OW70137   0.365   4.770  12.223  0.3083 -0.6748  0.2490
22899SOL    HW170138   0.316   4.753  12.143  2.3558  1.0764 -1.4932
22899SOL    HW270139   0.436   4.705  12.222 -0.0932 -1.1400  1.0645
22900SOL     OW70140   3.256   4.248   9.478  0.0480 -0.3014  0.2213
22900SOL    HW170141   3.172   4.280   9.445  0.0964  0.1436  0.5083
22900SOL    HW270142   3.321   4.302   9.432  0.2007 -0.9873 -0.3753
22901SOL     OW70143   1.325   0.823   7.328  0.2246 -0.0266 -0.0848
22901SOL    HW170144   1.233   0.829   7.303 -0.9723 -2.0915  3.2542
22901SOL    HW270145   1.345   0.909   7.366 -0.6863  0.0491  0.2429
22902SOL     OW70146   5.937   3.454   6.671  0.2090 -0.0795  0.0986
22902SOL    HW170147   6.024   3.416   6.688  0.7897  1.0813 -0.1687
22902SOL    HW270148   5.953   3.521   6.604 -0.8539  0.3187  0.2275
22903SOL     OW70149   1.872   4.117   1.728 -0.4573  0.5088  0.2087
22903SOL    HW170150   1.813   4.164   1.669 -0.0859 -0.9895 -1.4720
22903SOL    HW270151   1.843   4.141   1.816 -2.4116  1.2078 -0.5672
22904SOL     OW70152   6.963   6.256   0.257  0.6551  0.1902 -0.5604
22904SOL    HW170153   6.956   6.203   0.336 -0.0277 -2.0287 -2.0170
22904SOL    HW270154   6.902   6.329   0.271  0.7340 -0.0093  1.0129
22905SOL     OW70155   7.050   4.570   6.935  0.0789 -0.1020 -0.4563
22905SOL    HW170156   7.033   4.546   7.026 -1.3027 -0.3795 -0.7631
22905SOL    HW270157   7.000   4.506   6.884 -1.3866  1.6839 -1.3500
22906SOL     OW70158   4.736   3.401  12.408 -0.7900  0.2367  0.4377
22906SOL    HW170159   4.659   3.381  12.460 -0.3751 -0.4756  0.7977
22906SOL    HW270160   4.706   3.396  12.317 -0.7349 -2.0866  0.4933
22907SOL     OW70161   1.488   1.851   6.549 -0.1779  0.1072 -0.2055
22907SOL    HW170162   1.459   1.865   6.639  0.7505  1.7199 -0.1168
22907SOL    HW270163   1.414   1.879   6.495  0.0509  1.2270  0.0449
22908SOL     OW70164   7.694   5.270  10.469 -0.5189  0.6607 -0.2572
22908SOL    HW170165   7.788   5.287  10.458 -0.7008  2.4888  0.7363
22908SOL    HW270166   7.661   5.260  10.380  0.6109 -0.1349 -0.6201
22909SOL     OW70167   3.924   5.967  10.060 -0.1681 -0.5684  0.8347
22909SOL    HW170168   3.886   6.050  10.090 -2.0431 -1.8149  2.1481
22909SOL    HW270169   3.931   5.978   9.965  1.0096  1.5749  1.0896
22910SOL     OW70170   5.771   5.441   3.026  0.1733 -0.3375  0.1058
22910SOL    HW170171   5.743   5.521   3.070  0.1664 -0.9366  1.2249
22910SOL    HW270172   5.726   5.370   3.072 -1.2361 -0.8993 -2.0059
22911SOL     OW70173   7.713   6.979  11.389 -0.0949  0.1718 -0.3639
22911SOL    HW170174   7.804   6.949  11.395 -0.2197  0.0191  1.3867
22911SOL    HW270175   7.712   7.060  11.440 -0.7764  0.6278 -1.0805
22912SOL     OW70176   6.053   5.100   1.888  0.1604 -0.1611  0.0737
22912SOL    HW170177   6.146   5.120   1.880  0.1850 -0.5845 -0.8105
22912SOL    HW270178   6.030   5.060   1.805 -1.7040  3.4448 -1.3528
22913SOL     OW70179   5.931   4.541   8.315 -0.1238  0.0469 -0.4136
22913SOL    HW170180   5.862   4.594   8.354 -0.0294  0.1023 -0.3210
22913SOL    HW270181   5.948   4.472   8.380  1.6802  1.5029  0.7365
22914SOL     OW70182   0.880   1.317   2.674  0.1164  0.1006 -0.3134
22914SOL    HW170183   0.918   1.262   2.605 -0.2870 -1.5576  0.7144
22914SOL    HW270184   0.799   1.272   2.698  1.2873 -0.6293  2.7092
22915SOL     OW70185   3.948   0.233   9.913  0.0918  0.2190  0.4454
22915SOL    HW170186   3.989   0.147   9.909  0.9027  0.5990  0.4670
22915SOL    HW270187   3.917   0.249   9.823 -0.8265 -0.4542  0.6340
22916SOL     OW70188   7.381   6.640   7.397 -0.2541  0.4117  0.4490
22916SOL    HW170189   7.333   6.702   7.452 -2.3595 -0.5194 -0.2264
22916SOL    HW270190   7.357   6.554   7.431  0.4747 -0.1098 -0.3077
22917SOL     OW70191   1.739   5.698   1.851 -0.0183 -0.2275  0.5654
22917SOL    HW170192   1.676   5.678   1.782 -0.6612  0.4334  0.9459
22917SOL    HW270193   1.820   5.721   1.804 -0.0210 -1.1792  0.0783
22918SOL     OW70194   4.154   6.543   3.011  0.1145 -0.4175  0.1242
22918SOL    HW170195   4.215   6.610   2.980  0.5865 -1.7139 -1.9046
22918SOL    HW270196   4.199   6.503   3.086  0.4929  0.5215  0.4125
22919SOL     OW70197   5.559   7.092  11.668 -0.2720  0.0620 -0.1198
22919SOL    HW170198   5.477   7.057  11.702 -0.6513  0.5830 -0.4891
22919SOL    HW270199   5.616   7.015  11.662 -0.8067 -0.3476 -0.0946
22920SOL     OW70200   0.524   5.510   4.626 -0.1668  0.3523  0.0020
22920SOL    HW170201   0.578   5.567   4.682 -0.4432  1.1610 -0.5378
22920SOL    HW270202   0.444   5.561   4.610 -0.6171 -0.3791 -0.1248
22921SOL     OW70203   1.806   7.449  11.237 -0.3013  0.1905 -0.0018
22921SOL    HW170204   1.806   7.530  11.186 -0.2562  0.9570  1.1798
22921SOL    HW270205   1.719   7.445  11.276  0.1976  0.4867  1.1782
22922SOL     OW70206   0.728   5.189   5.972 -0.0169 -0.4889 -0.0236
22922SOL    HW170207   0.724   5.179   6.067  0.9420 -0.1069  0.0753
22922SOL    HW270208   0.659   5.251   5.951  0.8359  0.7311  0.6527
22923SOL     OW70209   3.329   7.345   3.014 -0.5558 -0.0129 -0.2989
22923SOL    HW170210   3.325   7.250   3.017 -0.2849 -0.0348 -0.5416
22923SOL    HW270211   3.239   7.374   3.029 -0.1200 -0.1778  3.5544
22924SOL     OW70212   3.670   7.911   4.946 -0.5692 -0.1678  0.9045
22924SOL    HW170213   3.675   7.951   5.033  1.2243 -0.3253  0.9137
22924SOL    HW270214   3.754   7.866   4.935 -0.3913  0.5429 -1.2348
22925SOL     OW70215   3.195   4.927   4.886 -0.5748 -0.0551 -0.3871
22925SOL    HW170216   3.100   4.917   4.891 -0.6019  0.7002  1.1050
22925SOL    HW270217   3.214   5.004   4.941  1.0441 -1.1108  0.6037
22926SOL     OW70218   6.065   2.233   0.231 -0.0713 -0.5069  0.0923
22926SOL    HW170219   6.031   2.284   0.157 -0.5710 -3.9057 -2.2828
22926SOL    HW270220   5.997   2.239   0.298 -1.7138 -0.7396 -1.4594
22927SOL     OW70221   7.815   6.867  11.937  0.3229  0.4080 -0.1989
22927SOL    HW170222   7.892   6.812  11.945 -0.1665 -0.2745 -0.1111
22927SOL    HW270223   7.741   6.808  11.952 -0.1981  1.1548  0.2490
22928SOL     OW70224   2.624   1.745   2.110 -0.2626 -0.2854  0.1373
22928SOL    HW170225   2.640   1.717   2.200 -0.7417 -0.8825  0.0439
22928SOL    HW270226   2.707   1.784   2.082  0.4393 -1.6413  0.2641
22929SOL     OW70227   6.934   0.129  12.344  0.4995  0.3454 -0.0781
22929SOL    HW170228   6.927   0.080  12.262 -0.8671  0.4574 -0.0506
22929SOL    HW270229   7.025   0.116  12.372  0.9078  0.0716 -1.4556
22930SOL     OW70230   1.469   4.251   2.777  0.0266 -0.4612  0.2338
22930SOL    HW170231   1.408   4.269   2.706 -0.9515 -0.4273  1.0611
22930SOL    HW270232   1.519   4.175   2.748  0.6732  0.4364 -1.1045
22931SOL     OW70233   5.096   0.174   9.381  0.5492 -0.3824 -0.0992
22931SOL    HW170234   5.063   0.087   9.401 -0.1731  0.3751  2.3450
22931SOL    HW270235   5.164   0.190   9.447  0.1115  1.1747  0.0254
22932SOL     OW70236   0.134   6.759  10.765 -0.1486 -0.3527  0.4732
22932SOL    HW170237   0.226   6.768  10.789  0.0724  2.5211 -0.9873
22932SOL    HW270238   0.111   6.669  10.789  2.5032 -0.5830  2.5452
22933SOL     OW70239   2.549   2.364  11.794 -0.5555 -0.4152  0.1706
22933SOL    HW170240   2.497   2.287  11.772 -2.0798  0.2996  1.0838
22933SOL    HW270241   2.531   2.427  11.724  0.4067 -0.7266 -0.3828
22934SOL     OW70242   5.883   2.379  11.967  0.6641 -0.2648 -0.1230
22934SOL    HW170243   5.813   2.441  11.985  3.2492  2.5668  1.1365
22934SOL    HW270244   5.862   2.343  11.880 -3.3945 -1.3875  1.1021
22935SOL     OW70245   4.980   3.467   1.045 -0.0492  0.1992  0.2961
22935SOL    HW170246   5.044   3.431   1.106 -0.5037  0.9301  1.2377
22935SOL    HW270247   4.903   3.410   1.054 -0.5265  0.9687  1.2843
22936SOL     OW70248   5.138   2.908  10.927 -0.7031 -0.0015  0.2111
22936SOL    HW170249   5.183   2.851  10.864  0.4279 -0.3355  1.2833
22936SOL    HW270250   5.098   2.976  10.873  0.4148 -0.1650 -0.8583
22937SOL     OW70251   3.707   3.524   2.326 -0.2526  0.3571  0.1031
22937SOL    HW170252   3.707   3.551   2.234  0.2484 -0.4499 -0.1479
22937SOL    HW270253   3.744   3.599   2.373  0.1966  0.4951 -0.4549
22938SOL     OW70254   4.666   7.031   2.269 -0.4127  0.3826 -0.4269
22938SOL    HW170255   4.638   7.053   2.180 -2.1736  0.8582  0.1984
22938SOL    HW270256   4.731   7.098   2.291 -0.4702  0.6692 -1.1145
22939SOL     OW70257   1.273   1.369   2.385  0.3498 -0.1892 -0.7099
22939SOL    HW170258   1.338   1.301   2.367  0.5355  0.0058 -0.7814
22939SOL    HW270259   1.322   1.439   2.429  0.1375 -0.1499 -0.5294
22940SOL     OW70260   3.881   1.695   9.971  0.1706 -0.4395 -0.0794
22940SOL    HW170261   3.821   1.740  10.029  2.5204 -0.1520  2.3030
22940SOL    HW270262   3.833   1.617   9.943 -2.1968  1.0481 -0.4450
22941SOL     OW70263   2.896   4.869   9.022 -0.0509  0.1111 -0.0764
22941SOL    HW170264   2.802   4.882   9.038 -0.1452 -0.5492 -0.0571
22941SOL    HW270265   2.911   4.908   8.936 -0.5918 -0.8028 -0.6010
22942SOL     OW70266   2.788   6.282   8.839 -0.1261  0.2248 -0.2493
22942SOL    HW170267   2.705   6.323   8.818 -0.5256 -0.4379  0.0249
22942SOL    HW270268   2.848   6.312   8.770 -0.8837 -0.2349 -1.1328
22943SOL     OW70269   3.329   5.164   5.310 -0.2362  0.3837 -0.5608
22943SOL    HW170270   3.423   5.177   5.306 -0.2647  1.8994  1.8937
22943SOL    HW270271   3.292   5.253   5.310 -1.5464 -0.1298 -0.0333
22944SOL     OW70272   0.532   6.403   0.579 -0.6987  0.0643  0.4875
22944SOL    HW170273   0.496   6.485   0.544 -1.4456  0.0068  1.0829
22944SOL    HW270274   0.456   6.349   0.597 -0.2681 -0.3855  1.0132
22945SOL     OW70275   7.570   0.197  12.185 -0.3775 -0.3730 -0.3126
22945SOL    HW170276   7.660   0.168  12.169 -0.4985 -0.0099 -1.8146
22945SOL    HW270277   7.525   0.183  12.102 -1.4082  0.5514  0.0600
22946SOL     OW70278   5.823   4.391   9.065  0.0452  0.1589 -0.0558
22946SOL    HW170279   5.835   4.465   9.123 -1.6266 -0.4139  1.0992
22946SOL    HW270280   5.868   4.318   9.109  0.0414  0.0525 -0.2273
22947SOL     OW70281   7.493   0.779   9.168 -0.2525 -0.5519  0.3613
22947SOL    HW170282   7.491   0.698   9.219 -0.2119  0.0940  1.4102
22947SOL    HW270283   7.476   0.751   9.078 -0.4896 -1.6889  0.7464
22948SOL     OW70284   3.730   3.933   0.915 -0.3241 -0.7370 -0.0213
22948SOL    HW170285   3.735   3.853   0.863 -0.5347 -1.0589  0.4404
22948SOL    HW270286   3.682   3.996   0.860 -0.8392 -1.1772 -0.0841
22949SOL     OW70287   5.139   3.261   5.718  0.1584 -0.2905  0.4214
22949SOL    HW170288   5.186   3.236   5.639 -0.0945  2.1416 -0.5786
22949SOL    HW270289   5.206   3.262   5.786  0.9587  0.2035 -0.3500
22950SOL     OW70290   6.445   1.155   4.204  0.2811 -0.0829 -0.7900
22950SOL    HW170291   6.533   1.169   4.169  0.2389  1.8880 -0.1889
22950SOL    HW270292   6.454   1.169   4.298 -0.8393  1.0864 -0.8356
22951SOL     OW70293   2.878   1.765   0.229 -0.0943  0.1808 -0.1870
22951SOL    HW170294   2.895   1.856   0.204  0.8009 -0.3637 -1.6486
22951SOL    HW270295   2.797   1.742   0.184 -0.8370  0.5139  0.9321
22952SOL     OW70296   6.315   1.232   9.056 -0.6073  0.2326  0.0174
22952SOL    HW170297   6.366   1.252   9.134 -0.5994  0.5441 -0.0656
22952SOL    HW270298   6.359   1.280   8.986  1.7061 -2.9877 -0.9633
22953SOL     OW70299   2.258   6.848   2.669 -0.5405  0.9628 -0.0599
22953SOL    HW170300   2.346   6.885   2.660 -0.5332  0.5569 -1.9990
22953SOL    HW270301   2.218   6.859   2.583 -1.6895 -0.6457  0.2200
22954SOL     OW70302   0.885   2.654   2.449  0.1030  0.2686 -0.6652
22954SOL    HW170303   0.899   2.628   2.358  0.6893  2.7117 -1.3336
22954SOL    HW270304   0.811   2.714   2.446  0.9974  1.4634  0.2308
22955SOL     OW70305   3.792   3.300   1.785  0.1664 -0.1272 -0.3634
22955SOL    HW170306   3.878   3.267   1.810 -0.1311  0.5488  1.6597
22955SOL    HW270307   3.732   3.262   1.849 -0.6605  1.5057 -0.1266
22956SOL     OW70308   3.470   1.952   8.857  0.1769 -0.3277  0.4635
22956SOL    HW170309   3.489   1.900   8.778 -0.0621 -0.6100  0.5880
22956SOL    HW270310   3.486   1.892   8.929  0.2386 -0.1170  0.6239
22957SOL     OW70311   0.422   4.957   3.000  0.1696 -0.0960  0.2666
22957SOL    HW170312   0.516   4.952   2.980  0.1557  0.4882  0.0419
22957SOL    HW270313   0.411   4.903   3.078  0.9169  0.8658  1.0619
22958SOL     OW70314   3.871   2.206   5.728 -0.1479 -0.2267 -0.1864
22958SOL    HW170315   3.836   2.189   5.640  0.9951 -1.1168 -0.5061
22958SOL    HW270316   3.877   2.301   5.733  0.1963 -0.1661 -1.2748
22959SOL     OW70317   5.776   6.777   0.228  0.4553 -0.5561  0.0790
22959SOL    HW170318   5.689   6.814   0.245  0.5790 -0.3877  0.3438
22959SOL    HW270319   5.837   6.835   0.273  0.7620 -0.3159 -0.6299
22960SOL     OW70320   1.504   1.294   9.629 -0.1208  0.1814 -0.0516
22960SOL    HW170321   1.584   1.246   9.608 -1.2193 -1.0305 -1.6443
22960SOL    HW270322   1.472   1.253   9.710  0.7450  0.5687  0.5075
22961SOL     OW70323   6.962   7.224  12.350 -0.0294 -0.1167  0.4834
22961SOL    HW170324   7.031   7.276  12.393  2.9875 -1.4832 -2.2263
22961SOL    HW270325   6.961   7.141  12.397  0.1671 -0.0689  0.5741
22962SOL     OW70326   0.057   1.576   8.041  0.4420  0.0611  0.3663
22962SOL    HW170327   0.106   1.520   8.101 -0.7141  1.0714  2.3629
22962SOL    HW270328  -0.027   1.532   8.030 -0.3811  1.1637  1.7521
22963SOL     OW70329   7.527   7.757   1.544 -0.7201  0.3771 -0.0874
22963SOL    HW170330   7.478   7.796   1.472 -1.1462  0.9638  0.4985
22963SOL    HW270331   7.600   7.816   1.558  0.4275 -0.7202 -1.2322
22964SOL     OW70332   4.368   7.467   1.150  0.0806 -0.1354  0.7721
22964SOL    HW170333   4.301   7.535   1.143 -0.3888 -0.7647 -3.2283
22964SOL    HW270334   4.320   7.388   1.175  0.1737  0.3383  2.5741
22965SOL     OW70335   2.815   6.388   0.663  0.0919 -0.2907  0.3325
22965SOL    HW170336   2.826   6.479   0.691  0.1298  0.0927 -0.8942
22965SOL    HW270337   2.847   6.336   0.738  1.7490  0.7095  0.3706
22966SOL     OW70338   6.092   0.425   5.043 -0.5549  0.1980 -0.0520
22966SOL    HW170339   6.104   0.345   4.991 -0.3617  0.7355 -0.8616
22966SOL    HW270340   6.094   0.495   4.978 -2.4809  0.7495  0.4264
22967SOL     OW70341   4.224   6.301   6.756  0.1026 -0.1460  0.0598
22967SOL    HW170342   4.315   6.323   6.775 -0.3783  2.9252 -0.6521
22967SOL    HW270343   4.174   6.345   6.824 -0.9436 -0.0898 -0.7238
22968SOL     OW70344   2.425   5.387   8.958 -0.1331 -0.4689  0.5859
22968SOL    HW170345   2.349   5.330   8.945  0.2373 -0.7866 -0.2753
22968SOL    HW270346   2.491   5.353   8.897  0.3228  0.4839  0.5273
22969SOL     OW70347   5.234   3.585  11.945  0.1455 -0.1088  0.2048
22969SOL    HW170348   5.300   3.612  11.881 -1.8598 -0.3457 -2.1015
22969SOL    HW270349   5.219   3.492  11.925 -2.1956  0.4040 -0.6548
22970SOL     OW70350   3.033   2.008   2.255  0.0943  0.1021  0.0743
22970SOL    HW170351   3.119   2.027   2.294  0.0419  0.3914  0.0515
22970SOL    HW270352   3.031   2.061   2.176  0.2023 -0.4900 -0.3334
22971SOL     OW70353   2.179   6.502   2.652 -0.0361  0.3042  0.6114
22971SOL    HW170354   2.116   6.463   2.591  0.8000 -0.8068  0.4154
22971SOL    HW270355   2.128   6.564   2.703 -1.4856 -1.1259  0.9931
22972SOL     OW70356   5.505   1.398   5.300 -0.0245  0.4301  0.2831
22972SOL    HW170357   5.433   1.415   5.239 -0.7960  0.0374  1.0580
22972SOL    HW270358   5.495   1.306   5.323  1.8103 -0.1223 -0.9431
22973SOL     OW70359   3.734   7.457   5.050 -0.5067  0.1796 -0.1884
22973SOL    HW170360   3.739   7.361   5.049  1.0990  0.2352 -1.9395
22973SOL    HW270361   3.689   7.480   4.969 -0.7746  0.9257  0.1583
22974SOL     OW70362   5.539   0.315   7.385 -0.6854  0.1723 -0.2555
22974SOL    HW170363   5.501   0.305   7.472 -0.0671 -0.9491 -0.1096
22974SOL    HW270364   5.590   0.396   7.391 -1.8742  0.9427 -0.0482
22975SOL     OW70365   7.857   6.966   9.385  0.1426 -0.2997  0.2338
22975SOL    HW170366   7.805   6.943   9.307 -0.6579 -1.4398  1.0694
22975SOL    HW270367   7.948   6.955   9.357 -0.0992  0.0870 -0.7651
22976SOL     OW70368   7.329   5.539  11.704  0.6247  0.2240 -0.1225
22976SOL    HW170369   7.318   5.594  11.626  0.7028 -0.6036 -0.7390
22976SOL    HW270370   7.423   5.541  11.722  0.5964  0.4764 -0.0101
22977SOL     OW70371   6.323   0.040   3.141 -0.0665  0.0293  0.6454
22977SOL    HW170372   6.279  -0.027   3.192  0.1463 -0.2608  0.4488
22977SOL    HW270373   6.279   0.122   3.166 -0.1078 -0.1350  1.1303
22978SOL     OW70374   2.445   3.135   8.384 -0.4561 -0.1230 -0.4014
22978SOL    HW170375   2.497   3.157   8.306  0.1026  1.3156  0.3316
22978SOL    HW270376   2.488   3.182   8.455 -1.1520 -1.1431  0.7376
22979SOL     OW70377   4.709   7.926   9.519 -0.0923  0.0960 -0.1224
22979SOL    HW170378   4.708   7.914   9.424  1.2009 -0.8580 -0.0424
22979SOL    HW270379   4.729   8.019   9.531 -0.7989  0.3427 -0.7687
22980SOL     OW70380   3.193   2.989  12.421 -0.0529 -0.6572  0.7425
22980SOL    HW170381   3.182   3.083  12.437 -3.2461 -0.9253  0.8047
22980SOL    HW270382   3.285   2.972  12.439  0.7274  2.5169  0.3391
22981SOL     OW70383   5.583   4.680   6.721 -0.0295 -0.1364 -0.3424
22981SOL    HW170384   5.563   4.628   6.799 -0.9219 -1.2301 -1.2608
22981SOL    HW270385   5.506   4.737   6.710  0.4424  0.5771  0.0147
22982SOL     OW70386   2.663   4.629   4.110  0.2880  0.2679  0.1471
22982SOL    HW170387   2.579   4.597   4.076  0.5405 -1.9625  1.4112
22982SOL    HW270388   2.729   4.590   4.051  0.5078  0.5035  0.2377
22983SOL     OW70389   2.383   7.825   5.727  0.0590 -0.5071 -0.0744
22983SOL    HW170390   2.451   7.892   5.719 -0.1387 -0.3514 -0.4963
22983SOL    HW270391   2.401   7.782   5.810  0.4065 -0.1690  0.0280
22984SOL     OW70392   3.909   4.569   5.262 -0.5425  0.6425 -0.3646
22984SOL    HW170393   3.844   4.639   5.269 -0.7176  0.4353  0.1789
22984SOL    HW270394   3.876   4.512   5.193 -2.1653 -0.6920  1.3998
22985SOL     OW70395   4.318   1.805   5.001 -1.0639 -0.3059  0.0217
22985SOL    HW170396   4.350   1.857   4.927  3.3639 -1.4924  0.8032
22985SOL    HW270397   4.319   1.866   5.075 -0.3976 -0.3451  0.0527
22986SOL     OW70398   1.047   4.230  10.894  0.4239 -0.3258  0.3633
22986SOL    HW170399   0.965   4.275  10.916 -0.0302 -0.5767 -0.7347
22986SOL    HW270400   1.020   4.153  10.843  1.2770 -1.0564  0.9725
22987SOL     OW70401   7.691   1.890  10.425 -0.1783 -0.3698 -0.3799
22987SOL    HW170402   7.748   1.931  10.490 -1.8253 -0.3515  1.1608
22987SOL    HW270403   7.645   1.964  10.384  0.2967 -0.4264 -1.0196
22988SOL     OW70404   1.978   4.275   6.986  0.1255 -0.1951  0.6552
22988SOL    HW170405   1.935   4.253   6.903 -0.4687 -1.7661  1.3351
22988SOL    HW270406   2.057   4.221   6.987  0.5567  0.4299  0.7607
22989SOL     OW70407   2.849   4.369   2.506  0.2449  0.4026 -0.0165
22989SOL    HW170408   2.786   4.298   2.515  2.5238 -2.0195 -1.4941
22989SOL    HW270409   2.912   4.356   2.577  0.5413  1.0999 -0.1352
22990SOL     OW70410   2.219   0.484   9.610  0.5435 -0.0783  1.0123
22990SOL    HW170411   2.126   0.504   9.606  0.2939 -0.9881  1.9696
22990SOL    HW270412   2.258   0.562   9.649  0.0993  0.0337  1.2395
22991SOL     OW70413   4.988   6.359   8.491  0.4827 -0.5032  0.1470
22991SOL    HW170414   5.035   6.394   8.416 -0.0009  1.5806  0.7584
22991SOL    HW270415   4.940   6.283   8.457 -0.8937  1.2365 -2.0134
22992SOL     OW70416   3.337   5.393   3.310  0.0923  0.2562  0.3023
22992SOL    HW170417   3.414   5.414   3.363  0.9828 -0.2724 -0.7368
22992SOL    HW270418   3.305   5.478   3.279  0.4271  0.4630  0.5187
22993SOL     OW70419   7.077   5.344  12.085  0.8671  0.6210 -0.0766
22993SOL    HW170420   6.982   5.346  12.075  1.0123 -0.2956 -2.2222
22993SOL    HW270421   7.106   5.430  12.057  0.6876  0.9504  0.7138
22994SOL     OW70422   6.716   0.875   2.136  0.4011 -0.5427 -0.2629
22994SOL    HW170423   6.695   0.915   2.051 -1.4308 -0.2867  0.2648
22994SOL    HW270424   6.696   0.943   2.200 -0.4947 -1.4840  0.4931
22995SOL     OW70425   4.540   6.457   7.403 -0.0269 -0.0348 -0.0280
22995SOL    HW170426   4.543   6.528   7.339 -2.8865 -0.0851 -0.3606
22995SOL    HW270427   4.584   6.492   7.480  0.0493  1.4778 -0.7232
22996SOL     OW70428   7.073   0.273   8.216  0.2398 -0.0926 -0.4693
22996SOL    HW170429   7.001   0.255   8.276 -0.6882 -0.0167 -1.5227
22996SOL    HW270430   7.030   0.294   8.133  1.4689  0.6563 -0.9339
22997SOL     OW70431   6.660   1.295   2.890  0.0006 -0.5798  0.3365
22997SOL    HW170432   6.692   1.333   2.971  1.5525 -0.3059 -0.3668
22997SOL    HW270433   6.595   1.358   2.858 -0.2532 -0.4461  1.0897
22998SOL     OW70434   6.188   5.577   4.493  0.1177 -0.2799  0.6830
22998SOL    HW170435   6.237   5.597   4.413  3.0290 -1.1578  2.1103
22998SOL    HW270436   6.173   5.483   4.489 -0.5139 -0.1855  0.7833
22999SOL     OW70437   1.284   3.330   0.890 -0.4220 -0.3382  0.1720
22999SOL    HW170438   1.368   3.376   0.898 -0.2701 -0.7411  1.0461
22999SOL    HW270439   1.264   3.331   0.797 -0.6245  1.8585  0.1836
23000SOL     OW70440   3.403   0.655   0.675 -0.0797  0.5173  0.0521
23000SOL    HW170441   3.421   0.689   0.763  1.0310  0.8906 -0.3047
23000SOL    HW270442   3.457   0.576   0.669  0.3511  0.8516 -0.5247
23001SOL     OW70443   1.873   7.043   9.159 -0.0898  0.3617  0.3369
23001SOL    HW170444   1.817   6.965   9.153 -0.0559  0.3177  0.5833
23001SOL    HW270445   1.829   7.100   9.223  1.5877 -0.9083  2.8004
23002SOL     OW70446   3.512   0.569   3.018  0.0899  0.6997 -0.3200
23002SOL    HW170447   3.461   0.632   3.070  0.2906  1.4485 -0.9993
23002SOL    HW270448   3.448   0.504   2.989 -0.8036  2.3057 -2.2077
23003SOL     OW70449   0.299   7.474  11.466  0.1588  0.5066 -0.4743
23003SOL    HW170450   0.264   7.545  11.412  1.0281  2.7178  1.6946
23003SOL    HW270451   0.374   7.513  11.512  1.4689 -2.2006 -0.1042
23004SOL     OW70452   7.203   5.308  11.356 -0.2617 -0.3593 -0.0635
23004SOL    HW170453   7.116   5.268  11.364 -0.6559  0.4531 -0.2116
23004SOL    HW270454   7.186   5.401  11.348  0.5877 -0.2864 -1.1495
23005SOL     OW70455   5.885   4.777   2.459  0.0229  0.0203 -0.0101
23005SOL    HW170456   5.921   4.856   2.500  0.9363 -0.9155  1.0838
23005SOL    HW270457   5.879   4.714   2.531  1.5641 -1.6765 -1.2900
23006SOL     OW70458   0.535   5.685   0.028 -0.1372 -0.5813 -0.1287
23006SOL    HW170459   0.621   5.694  -0.012 -0.2136 -0.7529 -0.3342
23006SOL    HW270460   0.474   5.712  -0.041 -0.3071 -1.5386 -0.3639
23007SOL     OW70461   3.022   3.780   2.155 -0.5578 -0.3545 -0.4077
23007SOL    HW170462   3.061   3.693   2.155  0.0377 -0.0945  0.4853
23007SOL    HW270463   3.061   3.825   2.230 -1.9609  0.1899  0.0306
23008SOL     OW70464   6.754   7.679   3.120  0.0113  0.0750 -0.8794
23008SOL    HW170465   6.811   7.754   3.138  0.1610 -0.3261  0.4219
23008SOL    HW270466   6.807   7.622   3.064  0.8455 -0.1942  0.1406
23009SOL     OW70467   5.426   7.776   3.685 -0.2807 -0.3529  0.0813
23009SOL    HW170468   5.498   7.759   3.745 -0.4701 -0.3065  0.3273
23009SOL    HW270469   5.414   7.694   3.637  0.1859 -0.2385 -0.2347
23010SOL     OW70470   5.654   4.658   9.620 -0.4041 -0.0521  0.2852
23010SOL    HW170471   5.563   4.680   9.600 -0.4565  0.5630  1.1379
23010SOL    HW270472   5.668   4.692   9.708  0.4404 -0.7875  0.4488
23011SOL     OW70473   1.877   4.904   6.667 -0.3438  0.2302  0.1826
23011SOL    HW170474   1.916   4.940   6.747  1.4075 -1.4133  0.1219
23011SOL    HW270475   1.850   4.981   6.617 -0.8660  1.3180  2.0254
23012SOL     OW70476   4.975   4.515   3.055  0.0889 -0.3565 -0.0752
23012SOL    HW170477   5.036   4.559   3.114  1.3166  0.9497 -2.1851
23012SOL    HW270478   5.022   4.438   3.025  0.7009  0.5417 -1.5425
23013SOL     OW70479   3.182   2.716   5.734  0.0623 -0.1191 -0.6756
23013SOL    HW170480   3.254   2.758   5.687  0.7878  2.4386  2.3422
23013SOL    HW270481   3.225   2.659   5.798 -0.4968  1.0330  0.8027
23014SOL     OW70482   5.023   7.461   6.021 -0.6415 -0.1175 -0.3214
23014SOL    HW170483   5.069   7.455   6.105 -0.0840 -1.1843 -0.6841
23014SOL    HW270484   4.938   7.497   6.044 -0.2206  0.3353  0.5989
23015SOL     OW70485   3.235   3.128   0.613  0.0182 -0.0721  0.4444
23015SOL    HW170486   3.145   3.132   0.645  0.4760  0.7026  1.7270
23015SOL    HW270487   3.231   3.162   0.524 -1.0968 -0.9677  0.1368
23016SOL     OW70488   5.334   2.425  11.728 -0.3957  0.1835  0.1083
23016SOL    HW170489   5.329   2.444  11.822 -0.0389 -1.1555  0.4197
23016SOL    HW270490   5.372   2.505  11.690  0.7913  0.2294  1.3062
23017SOL     OW70491   3.198   6.509   3.678  0.3282 -0.3434  0.4686
23017SOL    HW170492   3.122   6.559   3.648 -0.1401 -1.4405 -0.2431
23017SOL    HW270493   3.163   6.450   3.745  1.0315  0.8142  1.9086
23018SOL     OW70494   0.461   2.447   3.414  0.0675  0.1348 -0.0690
23018SOL    HW170495   0.556   2.454   3.419  0.1807 -1.5524  1.3102
23018SOL    HW270496   0.445   2.391   3.338 -0.0110  2.4800 -1.8564
23019SOL     OW70497   3.878   7.502   7.421 -0.0700 -0.3862 -0.1637
23019SOL    HW170498   3.919   7.475   7.339  2.1650  2.9796 -0.3285
23019SOL    HW270499   3.943   7.481   7.488 -0.7869 -0.7191  0.4404
23020SOL     OW70500   2.344   6.059   0.434  0.4981  0.3788 -0.4317
23020SOL    HW170501   2.385   6.135   0.476  0.2604  0.3221 -0.0950
23020SOL    HW270502   2.414   6.020   0.382  0.4591  1.2140 -1.1457
23021SOL     OW70503   1.802   5.953  11.914 -0.6433  0.1985 -0.7840
23021SOL    HW170504   1.840   6.023  11.967 -0.8823  0.2367 -0.6623
23021SOL    HW270505   1.842   5.964  11.828 -0.4649  0.3087 -0.6870
23022SOL     OW70506   5.925   6.348   1.258  0.2156 -0.1846 -0.3008
23022SOL    HW170507   5.892   6.262   1.282 -0.1307  0.0919  0.2359
23022SOL    HW270508   5.940   6.392   1.341 -2.0795  1.1968 -0.5262
23023SOL     OW70509   7.592   2.034   2.711  0.0669 -0.5149 -0.1591
23023SOL    HW170510   7.568   1.942   2.719  1.4273 -1.1117 -2.1162
23023SOL    HW270511   7.521   2.074   2.661 -1.5080  0.0323  2.3394
23024SOL     OW70512   2.960   1.739   5.561  0.5523 -0.7790  0.3091
23024SOL    HW170513   2.882   1.696   5.597  0.8484 -0.9531  0.7587
23024SOL    HW270514   3.033   1.700   5.609  1.0432 -1.5716 -1.0234
23025SOL     OW70515   6.488   7.485   1.294 -0.6080 -0.0874  0.1931
23025SOL    HW170516   6.472   7.390   1.296  0.8143 -0.3675  2.6428
23025SOL    HW270517   6.580   7.492   1.269 -0.9122  0.7235 -0.7392
23026SOL     OW70518   1.744   7.633   5.651  0.0917 -0.5387 -1.0502
23026SOL    HW170519   1.788   7.563   5.603 -1.8400 -3.1288  0.6902
23026SOL    HW270520   1.669   7.590   5.692  0.1383  2.0427  2.1061
23027SOL     OW70521   3.118   1.127  11.047  0.3154  0.8153 -0.0069
23027SOL    HW170522   3.180   1.198  11.065 -0.1922  0.6243  2.9495
23027SOL    HW270523   3.032   1.167  11.058 -0.0552  0.3703 -1.1477
23028SOL     OW70524   5.979   2.691   5.861 -0.4131 -0.1526  0.2466
23028SOL    HW170525   5.895   2.732   5.883  0.2358  1.6066 -0.3543
23028SOL    HW270526   6.030   2.696   5.943  0.9228  3.6496 -0.5842
23029SOL     OW70527   2.315   3.505  10.220  0.1700 -0.0356  0.2627
23029SOL    HW170528   2.337   3.591  10.185 -0.6245 -0.0972 -0.4145
23029SOL    HW270529   2.389   3.449  10.196  0.7198  0.4520  0.7595
23030SOL     OW70530   3.049   3.053  12.141  0.0679  0.6341  0.1352
23030SOL    HW170531   3.104   3.109  12.196  0.1254  0.2737  0.4441
23030SOL    HW270532   2.959   3.071  12.171 -0.1843  2.5308 -1.5266
23031SOL     OW70533   2.550   6.422   8.795 -0.3353  0.0221  0.0789
23031SOL    HW170534   2.548   6.506   8.840  0.0137  0.6078 -0.9583
23031SOL    HW270535   2.512   6.440   8.709  0.9858 -0.5534 -0.6568
23032SOL     OW70536   3.815   6.888   3.607 -0.1470 -0.4227  0.3384
23032SOL    HW170537   3.851   6.812   3.652 -1.2648 -1.8052 -0.9720
23032SOL    HW270538   3.783   6.853   3.523 -2.6511  1.0254  0.5719
23033SOL     OW70539   6.214   6.788   0.350  0.0574  1.0357  0.2231
23033SOL    HW170540   6.290   6.733   0.327  1.3279  2.9415 -0.3777
23033SOL    HW270541   6.165   6.735   0.413  0.5313 -1.2750 -1.2043
23034SOL     OW70542   6.356   5.178   3.387 -0.1297  0.9997 -0.1581
23034SOL    HW170543   6.395   5.145   3.469 -2.8219  1.2932  1.3634
23034SOL    HW270544   6.421   5.240   3.353  1.2396  0.5974  1.5487
23035SOL     OW70545   1.063   4.561   6.997 -0.2684  0.1757  0.0424
23035SOL    HW170546   1.103   4.517   7.072 -1.1682 -1.5092 -0.4139
23035SOL    HW270547   0.984   4.603   7.032 -0.0442  0.4262  0.2520
23036SOL     OW70548   0.316   0.150   5.646 -0.6669 -0.1360  0.6575
23036SOL    HW170549   0.258   0.114   5.579 -1.9994  0.6414  1.3447
23036SOL    HW270550   0.294   0.243   5.649  1.2256  0.3606  0.3785
23037SOL     OW70551   4.776   2.657   0.412 -1.0044  0.0122 -0.4375
23037SOL    HW170552   4.751   2.591   0.347  0.0851 -0.9755  0.1177
23037SOL    HW270553   4.702   2.718   0.414 -2.5934 -1.8482 -0.0938
23038SOL     OW70554   2.470   4.856   6.615  0.2537  0.0101  0.0774
23038SOL    HW170555   2.493   4.946   6.593  0.6765 -0.4006 -1.2511
23038SOL    HW270556   2.487   4.806   6.535  0.7851 -1.3916  1.0134
23039SOL     OW70557   1.956   2.438   5.469  0.5125  0.2666 -0.4089
23039SOL    HW170558   2.044   2.401   5.456  0.4366 -0.6583  1.4440
23039SOL    HW270559   1.970   2.515   5.523  0.1897  0.0637 -0.0310
23040SOL     OW70560   3.454   6.704   4.660 -0.4425  0.0278  0.1016
23040SOL    HW170561   3.531   6.703   4.604 -0.3838  1.3861  0.1302
23040SOL    HW270562   3.406   6.624   4.638 -0.4940  0.5907 -1.9772
23041SOL     OW70563   2.080   1.264  11.793  0.3679  0.4494  0.0097
23041SOL    HW170564   2.152   1.277  11.854 -0.7500 -3.5480  2.5622
23041SOL    HW270565   2.013   1.327  11.820  0.5994 -0.0419  1.8107
23042SOL     OW70566   0.716   2.890   1.431 -0.2991 -0.2592  0.2625
23042SOL    HW170567   0.734   2.971   1.384  3.5510 -0.7634  0.6135
23042SOL    HW270568   0.758   2.902   1.516  0.0057 -2.4547  0.4618
23043SOL     OW70569   2.435   5.264  11.305 -0.4341 -0.4688 -0.2936
23043SOL    HW170570   2.345   5.249  11.278 -0.8962 -0.9857  1.4034
23043SOL    HW270571   2.463   5.341  11.256 -2.2259  0.4459  0.0703
23044SOL     OW70572   0.268   7.201   9.502  0.5738 -0.0639  0.4976
23044SOL    HW170573   0.280   7.218   9.595  1.7127  0.2158  0.3073
23044SOL    HW270574   0.266   7.105   9.494  0.4806 -0.0862  0.8011
23045SOL     OW70575   7.497   1.034   3.577 -0.1355 -0.1262 -0.1872
23045SOL    HW170576   7.576   1.079   3.608 -0.7470  0.2916  0.7953
23045SOL    HW270577   7.526   0.944   3.560  0.1864 -0.4531  1.8630
23046SOL     OW70578   5.162   3.840   4.063 -0.0884 -0.1939  0.9369
23046SOL    HW170579   5.067   3.848   4.068  0.0611  1.1210  3.2208
23046SOL    HW270580   5.178   3.789   3.984 -2.6961 -0.8689  0.7545
23047SOL     OW70581   4.049   7.251  10.167 -0.0277  0.4400  0.2645
23047SOL    HW170582   4.105   7.227  10.242  0.1099 -0.8009 -0.2181
23047SOL    HW270583   3.972   7.195  10.176  0.3706 -0.3483 -0.9809
23048SOL     OW70584   0.069   0.862  10.536 -0.0574 -0.6043  0.1190
23048SOL    HW170585   0.134   0.836  10.471 -0.1362  2.0574 -1.1518
23048SOL    HW270586   0.097   0.819  10.617  0.6319 -3.1656 -1.3765
23049SOL     OW70587   7.352   1.598   5.535  0.3791  0.1953  0.1488
23049SOL    HW170588   7.310   1.649   5.466  0.6433  0.7704  0.4011
23049SOL    HW270589   7.280   1.569   5.591  0.2153  0.2023 -0.0596
23050SOL     OW70590   7.544   0.380   5.405  0.3125  0.0596 -0.1118
23050SOL    HW170591   7.535   0.467   5.444 -1.1058 -0.6621  1.2947
23050SOL    HW270592   7.549   0.396   5.311 -3.0540  1.5405 -0.1766
23051SOL     OW70593   3.470   2.369   6.504  0.4737  0.4261 -0.1692
23051SOL    HW170594   3.419   2.364   6.424 -0.7855 -1.0524  0.6644
23051SOL    HW270595   3.531   2.295   6.499  0.4800  0.4041  0.1605
23052SOL     OW70596   7.763   3.276   0.164 -0.4520 -0.0784  0.7819
23052SOL    HW170597   7.670   3.298   0.159 -0.7776 -1.4517  0.4902
23052SOL    HW270598   7.796   3.292   0.076 -0.2562  0.9817  1.0304
23053SOL     OW70599   7.473   4.178   0.681  0.2501 -0.5180 -0.2943
23053SOL    HW170600   7.491   4.266   0.713  0.0829 -0.0335 -1.4554
23053SOL    HW270601   7.556   4.149   0.644  0.3424 -0.9128  0.2186
23054SOL     OW70602   5.804   5.283  11.122  0.1022 -0.4885  0.1127
23054SOL    HW170603   5.878   5.229  11.150  0.2474  0.2716  1.2968
23054SOL    HW270604   5.844   5.354  11.072  0.1588 -0.2280  0.5205
23055SOL     OW70605   7.952   1.467   4.844 -0.6198  0.4164 -0.0395
23055SOL    HW170606   7.895   1.415   4.787 -0.8658 -1.5083  1.8209
23055SOL    HW270607   8.038   1.461   4.804 -0.7600 -0.9819 -0.1884
23056SOL     OW70608   4.457   6.372  12.124  0.1085 -0.0494 -0.2537
23056SOL    HW170609   4.455   6.468  12.118  0.3788 -0.0355 -0.1427
23056SOL    HW270610   4.524   6.346  12.061  0.3631 -0.1349  0.0500
23057SOL     OW70611   1.461   7.879   8.596 -1.0824 -0.0176  0.6723
23057SOL    HW170612   1.429   7.878   8.686 -3.4837  0.8696 -0.0942
23057SOL    HW270613   1.439   7.793   8.561  1.4474 -1.0334  1.3610
23058SOL     OW70614   6.584   2.080   8.465 -0.0205  0.1374  0.4702
23058SOL    HW170615   6.629   2.028   8.398 -1.5373 -0.8966  0.1891
23058SOL    HW270616   6.630   2.059   8.547  1.5279  1.0288 -0.1294
23059SOL     OW70617   1.292   7.260   6.502 -0.3083 -0.2875  0.3781
23059SOL    HW170618   1.337   7.185   6.541  0.4352 -0.5183 -0.8987
23059SOL    HW270619   1.199   7.238   6.509 -0.0732 -2.4953 -2.1512
23060SOL     OW70620   1.770   5.642   4.374 -0.2655 -0.5043 -0.0211
23060SOL    HW170621   1.678   5.636   4.399 -0.2189 -0.8322  0.0736
23060SOL    HW270622   1.771   5.618   4.281 -0.3748  0.2421 -0.2166
23061SOL     OW70623   4.175   4.811  12.110 -0.2516 -0.5099  0.2826
23061SOL    HW170624   4.241   4.836  12.175  0.8035  1.1794 -1.3636
23061SOL    HW270625   4.110   4.882  12.115 -0.2445 -0.4569 -0.3831
23062SOL     OW70626   6.518   7.270  12.431 -0.0444  0.6026 -0.5204
23062SOL    HW170627   6.580   7.335  12.465 -0.5272 -0.1699  2.1005
23062SOL    HW270628   6.530   7.273  12.336  2.0545  2.3843 -0.2962
23063SOL     OW70629   2.983   1.985   9.053  0.1149 -0.1981 -0.1575
23063SOL    HW170630   2.945   1.899   9.041  2.9395 -1.5192 -0.5884
23063SOL    HW270631   2.919   2.046   9.017 -1.5773 -2.1832 -0.6488
23064SOL     OW70632   0.617   3.495   1.170  0.0142 -0.4708 -0.0007
23064SOL    HW170633   0.661   3.465   1.090 -1.4644 -1.4410 -0.4917
23064SOL    HW270634   0.591   3.414   1.214  0.3808  0.0595  1.2478
23065SOL     OW70635   0.550   2.844  11.815  0.2847 -0.3836  0.0581
23065SOL    HW170636   0.639   2.839  11.851  0.0248  1.5762  1.1192
23065SOL    HW270637   0.499   2.783  11.869  0.5144  0.2892  1.0564
23066SOL     OW70638   3.352   6.636   5.105 -0.5575 -0.3228  0.2677
23066SOL    HW170639   3.372   6.569   5.040  1.1502 -1.6028  1.9954
23066SOL    HW270640   3.434   6.685   5.114 -0.3936 -0.8854  2.2021
23067SOL     OW70641   6.206   6.296   2.925  0.4690  0.3669  0.5022
23067SOL    HW170642   6.237   6.376   2.883 -0.4901  0.1470 -0.6492
23067SOL    HW270643   6.136   6.326   2.984  0.1295  0.3908  0.0931
23068SOL     OW70644   2.548   1.458   4.286  0.1983  0.1743  0.4491
23068SOL    HW170645   2.553   1.517   4.211  1.9615 -0.8625 -0.3190
23068SOL    HW270646   2.502   1.380   4.253  0.4136 -0.0290  0.6263
23069SOL     OW70647   2.706   0.433  10.315 -0.4135 -0.1230 -0.6191
23069SOL    HW170648   2.641   0.503  10.315 -0.2305  0.0499  0.2129
23069SOL    HW270649   2.695   0.389  10.399 -0.4406 -1.0191 -1.0769
23070SOL     OW70650   2.176   6.007  10.571  0.1368  0.6140  0.2239
23070SOL    HW170651   2.123   5.938  10.533 -0.3512  0.7297  0.6752
23070SOL    HW270652   2.257   5.963  10.599  0.0607  0.3363  0.0043
23071SOL     OW70653   7.597   4.930   5.020  0.6870  0.1650 -0.5987
23071SOL    HW170654   7.516   4.973   4.995 -0.2665 -0.3109  1.4740
23071SOL    HW270655   7.647   4.998   5.065 -0.9367 -0.7563  2.9253
23072SOL     OW70656   5.672   3.256   9.025 -0.0278 -0.1151 -0.0528
23072SOL    HW170657   5.693   3.349   9.015 -0.4820 -0.0582 -0.5317
23072SOL    HW270658   5.680   3.240   9.119 -0.7325  0.6196  0.1518
23073SOL     OW70659   1.723   1.768   6.666  0.1280 -0.7472 -0.1461
23073SOL    HW170660   1.637   1.752   6.627 -0.0466  0.3985 -0.2597
23073SOL    HW270661   1.739   1.861   6.651  1.3543 -0.9284 -0.0445
23074SOL     OW70662   7.104   2.372   8.560  0.1267 -0.1802 -0.6278
23074SOL    HW170663   7.010   2.362   8.579  0.1304  1.2050  0.3328
23074SOL    HW270664   7.148   2.323   8.630  0.1008  1.5238  0.6569
23075SOL     OW70665   3.213   5.922   7.323 -0.1933 -0.1854 -0.1284
23075SOL    HW170666   3.143   5.908   7.386  0.3206  0.9279  0.7341
23075SOL    HW270667   3.174   5.903   7.238 -1.2009 -0.6915  0.4362
23076SOL     OW70668   4.432   5.227   9.211  0.0214 -0.9347  0.3899
23076SOL    HW170669   4.404   5.299   9.155 -1.5972  0.6854  3.0327
23076SOL    HW270670   4.369   5.157   9.194  0.0588 -0.7768 -0.4123
23077SOL     OW70671   5.640   5.746   7.885  0.1313 -0.3553  0.3146
23077SOL    HW170672   5.574   5.796   7.933 -0.2455 -1.4682  0.9726
23077SOL    HW270673   5.723   5.788   7.908 -0.3055  1.0003 -0.4484
23078SOL     OW70674   0.439   0.767   0.060 -0.5355  0.0517  0.3972
23078SOL    HW170675   0.531   0.791   0.073 -0.6689  0.0090  1.5801
23078SOL    HW270676   0.391   0.849   0.071 -0.5689  0.2979 -1.3930
23079SOL     OW70677   6.009   2.898   9.521  0.4299  0.9296  0.6225
23079SOL    HW170678   5.997   2.806   9.498  1.2186  1.4109 -2.0862
23079SOL    HW270679   6.038   2.897   9.612 -1.7075 -1.3214  1.3701
23080SOL     OW70680   2.839   6.301   9.150  0.0757  0.6369 -0.2321
23080SOL    HW170681   2.784   6.372   9.184 -0.7503  0.2567 -0.7466
23080SOL    HW270682   2.810   6.290   9.059 -1.1994 -1.6813  0.3869
23081SOL     OW70683   0.444   3.362   7.719  0.2123 -0.0761  0.4956
23081SOL    HW170684   0.474   3.448   7.689  0.0630  0.2805  1.3408
23081SOL    HW270685   0.349   3.365   7.706  0.4266 -1.0086 -1.6838
23082SOL     OW70686   7.918   5.763   4.974 -0.3274 -0.2365  0.4014
23082SOL    HW170687   7.903   5.772   5.068 -1.4760 -1.1324  0.3281
23082SOL    HW270688   7.963   5.843   4.949  0.3334 -0.1560  1.7802
23083SOL     OW70689   1.312   4.453   9.647 -0.4602 -0.4613 -0.4874
23083SOL    HW170690   1.249   4.503   9.699 -0.1872  0.6515 -1.2092
23083SOL    HW270691   1.315   4.367   9.690 -0.2190  0.4237  1.3632
23084SOL     OW70692   3.781   6.449   3.217  0.0495  0.1203 -0.5900
23084SOL    HW170693   3.734   6.518   3.170 -1.1616 -0.5511 -0.4043
23084SOL    HW270694   3.725   6.429   3.292  0.5702 -0.7945 -0.4304
23085SOL     OW70695   6.354   4.064   9.565 -0.5792 -0.4186  0.4215
23085SOL    HW170696   6.301   4.045   9.488 -2.5884  0.1599  1.5791
23085SOL    HW270697   6.382   3.978   9.596  0.4172 -0.6446 -1.0318
23086SOL     OW70698   7.921   3.890   0.498  0.5949 -0.1806  0.3991
23086SOL    HW170699   7.960   3.869   0.413  2.3082  2.1397  0.5113
23086SOL    HW270700   7.996   3.902   0.557 -0.4574  0.4158  1.6779
23087SOL     OW70701   0.899   6.794  12.124 -0.2926  0.3250  0.2762
23087SOL    HW170702   0.821   6.814  12.072 -0.6433  1.0193  1.0388
23087SOL    HW270703   0.866   6.738  12.194  0.6903 -3.3069 -1.9056
23088SOL     OW70704   7.456   1.788   0.329 -0.2258  0.6172 -0.1968
23088SOL    HW170705   7.523   1.734   0.286  0.6198 -1.3780  3.2776
23088SOL    HW270706   7.504   1.865   0.360 -0.3480  0.9386 -0.7899
23089SOL     OW70707   4.073   0.127   6.200 -0.0792  0.2684 -0.1893
23089SOL    HW170708   3.995   0.133   6.146 -0.3506 -1.1160  0.0256
23089SOL    HW270709   4.119   0.209   6.184 -1.4283  0.9816 -0.5283
23090SOL     OW70710   2.572   5.447   4.574 -0.2132  0.5911  0.1156
23090SOL    HW170711   2.635   5.421   4.506  0.9189  0.1702  1.2942
23090SOL    HW270712   2.487   5.433   4.533  0.3658 -1.9807 -0.4197
23091SOL     OW70713   1.348   3.494   5.266  0.2098  0.2777 -0.1521
23091SOL    HW170714   1.408   3.543   5.212  0.1925 -0.1388 -0.5560
23091SOL    HW270715   1.269   3.483   5.213  0.0968  0.0868  0.0474
23092SOL     OW70716   0.805   3.175   1.386  0.0225  0.0429  0.0006
23092SOL    HW170717   0.885   3.142   1.345 -0.2826 -1.4085  0.5309
23092SOL    HW270718   0.768   3.234   1.320  1.2918  0.4024 -0.4313
23093SOL     OW70719   2.552   3.491   6.770 -0.0566  0.0305 -0.1101
23093SOL    HW170720   2.459   3.500   6.789 -0.2151  0.2850 -1.0010
23093SOL    HW270721   2.580   3.418   6.826 -0.7801 -0.0452  0.1719
23094SOL     OW70722   6.407   1.893   7.782 -0.6510 -0.3158  1.2934
23094SOL    HW170723   6.327   1.924   7.823 -1.0697 -0.3824  0.5390
23094SOL    HW270724   6.445   1.972   7.742 -1.4315 -0.6248 -0.1478
23095SOL     OW70725   6.848   6.694  11.799  0.2298  0.2971  0.1919
23095SOL    HW170726   6.787   6.629  11.765 -0.5928  0.1898  1.7698
23095SOL    HW270727   6.844   6.766  11.736 -0.9412 -0.0415 -0.1494
23096SOL     OW70728   1.815   5.828   5.480  0.0014 -0.0011  0.3124
23096SOL    HW170729   1.790   5.893   5.545 -1.6301 -1.4037  1.1606
23096SOL    HW270730   1.733   5.801   5.438  0.8231 -0.3610 -1.1587
23097SOL     OW70731   7.518   7.510   9.229  0.2470  0.9149 -0.3223
23097SOL    HW170732   7.589   7.544   9.284  0.6785  0.6024 -0.6867
23097SOL    HW270733   7.496   7.583   9.170 -0.6003  1.4531  0.6164
23098SOL     OW70734   1.173   5.973  11.186 -0.4951  0.8238  0.6691
23098SOL    HW170735   1.205   6.053  11.144  0.0873  0.0578 -0.3651
23098SOL    HW270736   1.252   5.927  11.213 -0.8234  0.3948  0.9059
23099SOL     OW70737   7.347   4.537  11.206 -0.5873 -0.3200 -0.2066
23099SOL    HW170738   7.377   4.468  11.265  0.0442  0.9342  0.9859
23099SOL    HW270739   7.358   4.499  11.118  1.0191 -1.2497  0.3532
23100SOL     OW70740   5.897   6.441   6.640  0.4624 -0.7502 -0.0854
23100SOL    HW170741   5.812   6.400   6.624 -0.0037  0.8074 -1.7995
23100SOL    HW270742   5.904   6.444   6.736 -1.5813 -0.5873  0.0975
23101SOL     OW70743   4.946   0.739   6.395 -0.1429 -0.3435 -0.3328
23101SOL    HW170744   4.966   0.679   6.467  1.6336  0.2409 -0.2832
23101SOL    HW270745   4.874   0.697   6.348 -0.1262 -1.6255  0.7224
23102SOL     OW70746   3.308   6.238   8.546 -0.2917  0.3542 -0.4326
23102SOL    HW170747   3.278   6.313   8.496 -0.5547  1.3936  1.1927
23102SOL    HW270748   3.228   6.190   8.568 -0.8971  2.6027  3.0794
23103SOL     OW70749   1.296   2.429   8.125  0.3091 -0.2120  0.4552
23103SOL    HW170750   1.335   2.443   8.039  1.4025 -1.0362  0.7883
23103SOL    HW270751   1.258   2.341   8.120  3.2008 -1.6502  1.7599
23104SOL     OW70752   6.932   5.406   2.983  0.1832  0.0910 -0.0671
23104SOL    HW170753   7.003   5.346   2.957  0.7316  0.8036 -0.2654
23104SOL    HW270754   6.852   5.360   2.959  0.2906 -2.5255  3.7414
23105SOL     OW70755   6.421   3.847  11.565 -0.0808 -0.3991 -0.0038
23105SOL    HW170756   6.374   3.895  11.497 -0.7927 -0.1829  0.6263
23105SOL    HW270757   6.463   3.915  11.618 -1.2504 -0.4129  1.0051
23106SOL     OW70758   0.280   5.544   2.770 -0.1431  0.3712  0.2520
23106SOL    HW170759   0.367   5.517   2.799 -0.2938  0.0657  0.4107
23106SOL    HW270760   0.265   5.495   2.689 -0.4514 -0.0839  0.5857
23107SOL     OW70761   3.653   4.785  11.278  1.0386 -0.2681 -0.1787
23107SOL    HW170762   3.692   4.699  11.290 -0.3003 -0.9461 -0.4695
23107SOL    HW270763   3.593   4.795  11.352 -0.1330 -0.3651 -1.0856
23108SOL     OW70764   6.488   1.265   9.268  0.2009  0.2003 -0.5423
23108SOL    HW170765   6.576   1.246   9.302 -0.0020 -2.0758 -1.1027
23108SOL    HW270766   6.450   1.325   9.332  1.3700 -0.5343  0.9118
23109SOL     OW70767   1.305   2.568   1.761 -0.1850  0.4660  0.1387
23109SOL    HW170768   1.280   2.638   1.701  0.2014  0.1759 -0.3604
23109SOL    HW270769   1.231   2.507   1.760  0.6319 -0.5617 -1.5913
23110SOL     OW70770   1.668   5.686   5.789  0.3043 -0.2670 -0.6662
23110SOL    HW170771   1.607   5.713   5.720 -1.0712 -1.4746  0.0102
23110SOL    HW270772   1.611   5.669   5.865  1.6608  0.0076  0.4473
23111SOL     OW70773   1.336   0.817   5.444  0.3284 -0.3155 -0.0670
23111SOL    HW170774   1.373   0.735   5.477 -1.5051 -0.9006  0.6683
23111SOL    HW270775   1.283   0.849   5.517  1.0627  1.5779 -0.3272
23112SOL     OW70776   2.609   6.401  11.522 -0.1772  0.3663  0.3037
23112SOL    HW170777   2.581   6.310  11.539 -0.5553  0.5361  0.6275
23112SOL    HW270778   2.660   6.396  11.441 -0.6120 -0.0627  0.0495
23113SOL     OW70779   1.413   4.345   1.343 -0.0857 -0.0222  0.4810
23113SOL    HW170780   1.471   4.306   1.278  1.6943 -0.0330  1.9947
23113SOL    HW270781   1.378   4.270   1.392  2.4844  0.0293  2.6753
23114SOL     OW70782   3.582   2.046   8.579 -0.3362  0.7687  0.3759
23114SOL    HW170783   3.508   2.106   8.586  0.0163  1.1617  0.7601
23114SOL    HW270784   3.637   2.084   8.511 -0.7863  0.1431 -0.3594
23115SOL     OW70785   4.379   5.720  10.315 -0.1535  0.2168  0.3654
23115SOL    HW170786   4.319   5.793  10.328 -2.0876 -1.1183 -0.5790
23115SOL    HW270787   4.441   5.751  10.249 -1.5707  0.6735 -0.7793
23116SOL     OW70788   7.105   1.438   8.018  0.2467  0.0350  0.6172
23116SOL    HW170789   7.129   1.381   8.091  0.4297  1.0344  1.3566
23116SOL    HW270790   7.139   1.524   8.042 -0.6417  0.6193 -0.1425
23117SOL     OW70791   4.403   0.450  10.743  0.1259  0.4114 -0.3781
23117SOL    HW170792   4.430   0.494  10.825 -0.8143 -0.8004  0.6213
23117SOL    HW270793   4.427   0.358  10.757  0.2561  0.2489 -1.6188
23118SOL     OW70794   6.312   7.062   2.525 -0.5692  0.2193 -0.0617
23118SOL    HW170795   6.380   6.998   2.507  0.6244  0.4406  3.0100
23118SOL    HW270796   6.357   7.146   2.526 -1.3221  0.6333 -0.1601
23119SOL     OW70797   2.754   7.875  10.775  0.2456  0.6811 -0.3809
23119SOL    HW170798   2.767   7.785  10.802  0.9899  1.1003  0.7566
23119SOL    HW270799   2.842   7.912  10.771 -0.1318  1.8011  0.8557
23120SOL     OW70800   5.849   5.664   1.061  0.3763  0.5025  0.3076
23120SOL    HW170801   5.762   5.694   1.089 -0.1441  0.5075 -1.2395
23120SOL    HW270802   5.891   5.741   1.024  0.9529  0.4384  0.8070
23121SOL     OW70803   6.008   2.897   6.504  0.1330 -0.3338 -0.4893
23121SOL    HW170804   6.100   2.872   6.501  0.5553  1.0834 -0.3228
23121SOL    HW270805   5.994   2.946   6.422 -0.0639  0.6977  0.1428
23122SOL     OW70806   0.464   2.233   5.750 -0.0809  0.1759 -0.0654
23122SOL    HW170807   0.477   2.232   5.844  0.0508 -0.1528 -0.0879
23122SOL    HW270808   0.545   2.273   5.716  0.7871 -1.6067 -0.1838
23123SOL     OW70809   1.238   6.258   6.864  0.5433  0.4536  0.5750
23123SOL    HW170810   1.319   6.294   6.900  0.9342  1.2872 -1.0253
23123SOL    HW270811   1.240   6.283   6.772 -0.8350 -0.8009  0.1674
23124SOL     OW70812   0.435   7.757  10.527  0.2039 -0.1289  0.4354
23124SOL    HW170813   0.425   7.848  10.557  0.7110 -0.1203  0.5883
23124SOL    HW270814   0.519   7.729  10.563  1.0166 -0.0120 -1.2413
23125SOL     OW70815   2.231   4.252   7.695 -0.1314 -0.1649 -0.4176
23125SOL    HW170816   2.183   4.288   7.770 -0.0200  0.0254 -0.4355
23125SOL    HW270817   2.191   4.167   7.679 -0.8136  0.2199 -0.7664
23126SOL     OW70818   1.355   6.076   0.963 -0.0359  0.0663 -0.2558
23126SOL    HW170819   1.272   6.118   0.937 -0.6517 -1.3658 -0.6999
23126SOL    HW270820   1.345   5.985   0.936  1.0158 -0.5232  1.2142
23127SOL     OW70821   4.720   7.425   0.050 -0.1563 -0.1050 -0.6722
23127SOL    HW170822   4.661   7.473   0.109  1.4334  0.1786  0.7942
23127SOL    HW270823   4.748   7.491  -0.014 -0.2712  0.1628 -0.4519
23128SOL     OW70824   4.653   7.833   5.403  0.0213 -0.1020  0.5206
23128SOL    HW170825   4.699   7.837   5.319 -0.8521 -1.0567 -0.0304
23128SOL    HW270826   4.624   7.742   5.410 -0.3972  0.1003  1.5986
23129SOL     OW70827   5.314   2.857   7.530  0.2903  0.2061 -0.6074
23129SOL    HW170828   5.252   2.797   7.489 -0.6988  2.5197 -2.7336
23129SOL    HW270829   5.384   2.866   7.465  1.3865 -0.0440  0.5010
23130SOL     OW70830   2.137   6.213   4.423  0.3864  0.3492 -0.4239
23130SOL    HW170831   2.043   6.202   4.440  0.5637 -1.0030 -0.1496
23130SOL    HW270832   2.152   6.307   4.428 -0.7570  0.5036  0.6183
23131SOL     OW70833   7.151   6.818   6.913 -0.3066  0.7789 -0.1431
23131SOL    HW170834   7.083   6.771   6.866  0.0951  0.0307  0.0190
23131SOL    HW270835   7.117   6.828   7.002  0.2118 -0.4897  0.2111
23132SOL     OW70836   5.969   6.177   0.486 -0.0938  0.3559 -0.1675
23132SOL    HW170837   6.062   6.163   0.505 -0.4004  0.8317  2.0736
23132SOL    HW270838   5.924   6.145   0.565 -1.6697  1.9121 -0.3687
23133SOL     OW70839   3.192   4.273   5.493 -0.2488 -0.0103  0.5410
23133SOL    HW170840   3.238   4.206   5.544 -0.2590 -0.5179 -0.0963
23133SOL    HW270841   3.253   4.298   5.425 -0.8987 -0.7099 -0.3290
23134SOL     OW70842   5.744   3.219  12.335  0.8523  0.5298  0.0614
23134SOL    HW170843   5.687   3.170  12.276  0.1340  0.9594  0.3939
23134SOL    HW270844   5.832   3.188  12.314  0.5871  0.5064 -1.0734
23135SOL     OW70845   0.120   3.474   4.597  0.6036  0.0263 -0.0259
23135SOL    HW170846   0.128   3.530   4.520  0.8983  0.5029  0.3446
23135SOL    HW270847   0.201   3.425   4.600  0.2601 -0.5818 -0.4670
23136SOL     OW70848   5.370   5.331   6.042  0.0877  0.4109  0.4519
23136SOL    HW170849   5.296   5.334   6.103  0.1503  1.6938  0.4994
23136SOL    HW270850   5.330   5.316   5.956 -0.3874  2.2542  0.3042
23137SOL     OW70851   4.125   3.214   7.743 -0.1336 -0.0930 -0.2516
23137SOL    HW170852   4.041   3.214   7.696  0.3438  1.6420 -1.1948
23137SOL    HW270853   4.103   3.241   7.832 -0.4514  1.7634 -0.8500
23138SOL     OW70854   1.292   0.562  10.727 -0.6459  0.1887  0.0364
23138SOL    HW170855   1.196   0.564  10.734 -0.6161 -0.3969  0.7005
23138SOL    HW270856   1.309   0.521  10.643 -0.9808  1.5389 -0.7217
23139SOL     OW70857   7.854   1.993   4.518  0.1916 -0.4922  0.0051
23139SOL    HW170858   7.882   1.906   4.547  0.8063 -0.0297  0.8669
23139SOL    HW270859   7.914   2.016   4.447 -1.9153 -2.0287 -2.4499
23140SOL     OW70860   6.634   1.969   4.352  0.1166 -0.5994  0.3329
23140SOL    HW170861   6.630   1.879   4.319 -0.2138 -0.8599  1.0672
23140SOL    HW270862   6.557   1.978   4.408  0.3236  0.0338  0.5248
23141SOL     OW70863   0.769   4.897   3.044  0.3632 -0.6863  0.5468
23141SOL    HW170864   0.729   4.837   3.106 -1.2812  0.2232  0.4128
23141SOL    HW270865   0.844   4.934   3.092 -0.8823  0.0219  2.0438
23142SOL     OW70866   2.449   0.109   8.330 -0.2277  0.0152  0.1163
23142SOL    HW170867   2.490   0.106   8.416 -0.1354  1.0614  0.1207
23142SOL    HW270868   2.365   0.065   8.342  0.1385 -0.5978  0.5255
23143SOL     OW70869   0.008   0.566   5.237  0.6648 -0.1654 -0.2194
23143SOL    HW170870   0.093   0.597   5.205  0.3155 -0.4215 -1.4458
23143SOL    HW270871  -0.029   0.517   5.163 -0.3491 -0.4493  0.4588
23144SOL     OW70872   2.936   6.345   3.435  0.2716  0.0584 -0.3537
23144SOL    HW170873   3.003   6.318   3.372  1.0287  0.2673  0.3426
23144SOL    HW270874   2.972   6.320   3.520 -1.1527 -1.0886 -0.0473
23145SOL     OW70875   5.009   7.659   0.059  0.2572 -0.3781 -0.0229
23145SOL    HW170876   4.956   7.671  -0.020  0.0766  0.3626  0.2037
23145SOL    HW270877   4.950   7.678   0.131  1.1067  1.7018  0.2067
23146SOL     OW70878   6.608   5.577   7.695  0.1678  0.2175 -0.3876
23146SOL    HW170879   6.593   5.503   7.636 -1.4894 -0.2015  0.4827
23146SOL    HW270880   6.548   5.645   7.663  1.7057  1.2381 -1.2038
23147SOL     OW70881   4.548   5.591   0.012 -0.6732  0.8737 -0.3012
23147SOL    HW170882   4.514   5.637   0.089 -2.8317  2.0812 -1.8975
23147SOL    HW270883   4.630   5.635  -0.008 -1.3331  2.2164 -0.1416
23148SOL     OW70884   2.710   4.830   2.505  0.1358 -0.4674 -0.4384
23148SOL    HW170885   2.694   4.791   2.419 -0.0423 -0.9094 -0.2028
23148SOL    HW270886   2.785   4.888   2.490  0.3988 -0.8906 -0.7886
23149SOL     OW70887   1.333   6.592   5.388  0.1626  0.0254 -0.4567
23149SOL    HW170888   1.416   6.546   5.403  0.0325 -1.0770 -2.7348
23149SOL    HW270889   1.355   6.685   5.396  1.9196 -0.1917 -2.0727
23150SOL     OW70890   6.386   3.215   3.949  0.8188  0.0385 -0.0030
23150SOL    HW170891   6.292   3.233   3.952  0.8016  0.1743 -0.9680
23150SOL    HW270892   6.393   3.120   3.957  0.6887  0.1327  1.4023
23151SOL     OW70893   2.997   6.476   1.000 -0.3665 -0.3765 -0.4734
23151SOL    HW170894   2.949   6.521   0.931  1.7169  2.5041 -0.2447
23151SOL    HW270895   3.088   6.480   0.973  0.3923 -0.2493  1.8515
23152SOL     OW70896   6.281   5.198   4.098  0.2226  0.5151 -0.2931
23152SOL    HW170897   6.186   5.207   4.104  0.1626 -0.4062  0.3354
23152SOL    HW270898   6.315   5.284   4.125 -0.4228  0.6178  0.2170
23153SOL     OW70899   0.825   0.956   5.304 -0.3877 -0.2461 -0.4560
23153SOL    HW170900   0.895   1.012   5.270 -1.2871  1.4625  0.3865
23153SOL    HW270901   0.783   0.920   5.225  0.1765  0.3193 -1.0243
23154SOL     OW70902   7.075   4.960  12.340 -0.1428  0.1611 -0.1336
23154SOL    HW170903   7.140   5.022  12.374 -0.1241  1.2591 -2.0104
23154SOL    HW270904   7.020   4.939  12.415  0.0265  2.2752  0.6608
23155SOL     OW70905   0.659   0.696   5.586  0.4596 -0.3803 -0.2333
23155SOL    HW170906   0.584   0.645   5.554 -0.4614  0.1929  0.9499
23155SOL    HW270907   0.714   0.707   5.509 -1.7509  1.1225 -1.7167
23156SOL     OW70908   7.118   1.089   4.753  0.2223  0.0604 -0.0427
23156SOL    HW170909   7.159   1.040   4.825  0.4714  1.8844  1.1206
23156SOL    HW270910   7.145   1.179   4.768 -0.4721  0.6206 -1.9498
23157SOL     OW70911   6.229   3.722   3.360 -0.2066 -0.4114  0.0668
23157SOL    HW170912   6.210   3.714   3.266 -0.8580  0.9572  0.0417
23157SOL    HW270913   6.303   3.783   3.364  0.8170 -1.6390  0.4043
23158SOL     OW70914   1.618   1.154   4.303  0.5694 -0.2219 -0.5076
23158SOL    HW170915   1.594   1.219   4.369  2.5547  1.2051 -1.0870
23158SOL    HW270916   1.577   1.184   4.223  0.8397 -0.1289 -0.6117
23159SOL     OW70917   1.535   1.344   4.498  0.5904 -0.3755  0.2130
23159SOL    HW170918   1.480   1.414   4.461  1.9255  0.1661 -0.8479
23159SOL    HW270919   1.477   1.295   4.555 -1.4256 -0.7847 -2.0482
23160SOL     OW70920   6.905   1.895   6.417 -0.0343 -0.2642  0.0148
23160SOL    HW170921   6.969   1.956   6.381  1.6591 -1.5411  0.7056
23160SOL    HW270922   6.938   1.875   6.505 -1.6213 -0.6578  0.5568
23161SOL     OW70923   6.017   6.577   4.123  0.4174  0.0195 -0.2045
23161SOL    HW170924   6.041   6.520   4.196  1.5966 -0.3382 -0.8358
23161SOL    HW270925   5.923   6.562   4.110 -0.1417  1.1396  2.1004
23162SOL     OW70926   4.609   3.776   9.724  0.4591 -0.0186  0.1179
23162SOL    HW170927   4.667   3.851   9.711 -0.6643  0.8657 -0.0111
23162SOL    HW270928   4.665   3.699   9.713  0.9801  0.6744 -3.8506
23163SOL     OW70929   2.707   6.007  12.237  0.2016 -0.1225  0.5287
23163SOL    HW170930   2.732   6.014  12.329  0.4440 -2.1631  0.6711
23163SOL    HW270931   2.615   5.981  12.240 -0.5413  2.2252  0.1004
23164SOL     OW70932   4.517   5.841   4.677  0.1375  0.1418 -0.1756
23164SOL    HW170933   4.554   5.902   4.741  1.8965  1.2514 -2.1469
23164SOL    HW270934   4.488   5.896   4.605  0.6901 -1.2506 -1.5179
23165SOL     OW70935   4.915   2.913   3.459 -0.2360 -0.0225 -0.8669
23165SOL    HW170936   4.830   2.921   3.415 -0.7141 -0.4426 -0.0320
23165SOL    HW270937   4.922   2.993   3.512 -0.7677 -0.6532  0.1759
23166SOL     OW70938   3.167   2.901  11.509  0.3147 -0.2459  0.1241
23166SOL    HW170939   3.105   2.964  11.473 -0.0112 -0.5513  0.1472
23166SOL    HW270940   3.113   2.831  11.546  0.6567 -0.1164  0.8893
23167SOL     OW70941   1.027   1.723   4.005  0.1832  0.3177 -0.3545
23167SOL    HW170942   0.943   1.710   3.961  0.3629  0.4111 -0.7283
23167SOL    HW270943   1.058   1.808   3.974 -0.4702  1.1833  1.2391
23168SOL     OW70944   4.629   7.195   8.587 -0.0903 -0.0058 -0.3595
23168SOL    HW170945   4.575   7.117   8.601  1.0879 -1.0297 -1.2191
23168SOL    HW270946   4.655   7.222   8.675 -0.4422 -0.6459 -0.0499
23169SOL     OW70947   5.242   3.061  12.176  0.0972  0.1472  0.2981
23169SOL    HW170948   5.251   3.043  12.270  1.7197  0.7709  0.2974
23169SOL    HW270949   5.189   2.989  12.143  0.1845 -0.5318  1.5621
23170SOL     OW70950   3.447   5.611   4.721  0.3002 -0.2092  0.4907
23170SOL    HW170951   3.521   5.550   4.722  1.2648  0.9049  1.0532
23170SOL    HW270952   3.379   5.568   4.773  0.0552 -1.7917 -1.0385
23171SOL     OW70953   2.105   5.276   4.759  0.2928 -0.2038 -0.6587
23171SOL    HW170954   2.050   5.200   4.777 -1.2477  1.0667  0.2533
23171SOL    HW270955   2.164   5.247   4.690 -1.2157 -1.7905 -1.3567
23172SOL     OW70956   2.610   7.309   1.124  0.2901  0.1175 -0.3932
23172SOL    HW170957   2.650   7.286   1.208 -2.3397 -0.1469  0.8553
23172SOL    HW270958   2.574   7.396   1.138 -0.1817  0.0687 -1.2628
23173SOL     OW70959   3.061   7.671  12.103  0.1881 -0.4413 -0.4186
23173SOL    HW170960   3.104   7.723  12.172  0.5115 -0.1777 -0.8121
23173SOL    HW270961   3.126   7.604  12.081  0.7045  0.3851 -1.5125
23174SOL     OW70962   5.839   6.031   2.055  0.0879 -0.1089  0.3652
23174SOL    HW170963   5.857   5.940   2.031  3.4738  0.7611 -1.0165
23174SOL    HW270964   5.923   6.063   2.087 -0.7523  2.8011 -0.1012
23175SOL     OW70965   3.629   7.547   7.602  0.1831  0.1156 -0.2240
23175SOL    HW170966   3.641   7.467   7.551 -0.7308 -0.6519  0.7107
23175SOL    HW270967   3.548   7.585   7.569  0.1767  0.2065 -0.1050
23176SOL     OW70968   2.860   4.445   1.228  0.0605 -0.5280  0.4958
23176SOL    HW170969   2.783   4.502   1.232 -1.4521 -2.3343 -0.9646
23176SOL    HW270970   2.872   4.426   1.135  1.2017 -1.6785  0.8359
23177SOL     OW70971   2.257   0.164   4.918 -0.3731  0.2459 -0.6034
23177SOL    HW170972   2.244   0.142   5.011  2.1728  1.1472  0.0334
23177SOL    HW270973   2.268   0.259   4.918  0.0974  0.1982 -1.7883
23178SOL     OW70974   7.397   1.860  10.637 -0.2093 -0.5797  0.2318
23178SOL    HW170975   7.347   1.844  10.557  0.0409  0.0591 -0.0588
23178SOL    HW270976   7.474   1.909  10.608  0.6649 -1.6781  0.6554
23179SOL     OW70977   4.318   3.356   1.614  0.0472  0.4185 -0.1499
23179SOL    HW170978   4.330   3.451   1.612 -0.8438  0.5499  0.1461
23179SOL    HW270979   4.401   3.321   1.646 -0.7597  1.3376  3.3534
23180SOL     OW70980   1.288   2.998  11.887  0.1778  0.4275 -0.1905
23180SOL    HW170981   1.335   3.001  11.971 -1.2301  0.9119  0.6199
23180SOL    HW270982   1.273   3.090  11.865 -1.0247  0.2867 -0.0339
23181SOL     OW70983   2.796   1.933   0.577  0.0391 -0.6775  0.0131
23181SOL    HW170984   2.846   1.851   0.576 -0.6827 -1.1369  0.4836
23181SOL    HW270985   2.710   1.908   0.611 -0.0887  0.3332  0.4652
23182SOL     OW70986   3.256   7.069   8.176 -0.3593 -0.3841 -1.2273
23182SOL    HW170987   3.329   7.130   8.166 -0.9229  0.3634 -0.8882
23182SOL    HW270988   3.266   7.035   8.265 -0.8800  0.3396 -0.8836
23183SOL     OW70989   2.249   4.981   6.341  0.1519 -0.1970 -0.1541
23183SOL    HW170990   2.279   5.041   6.273  0.5656 -0.3884 -0.1444
23183SOL    HW270991   2.189   5.033   6.395 -0.5064 -0.1528 -0.8967
23184SOL     OW70992   7.738   0.508   4.863 -0.2137  0.1476  0.2268
23184SOL    HW170993   7.701   0.589   4.898  0.2935  0.4151  0.1456
23184SOL    HW270994   7.825   0.532   4.834 -0.5119 -0.1510 -0.9486
23185SOL     OW70995   6.066   6.797  11.107 -0.2291  0.9055 -0.2798
23185SOL    HW170996   6.149   6.763  11.074  0.5433  1.0456  1.4154
23185SOL    HW270997   6.090   6.851  11.182 -1.9131  0.0421  0.9500
23186SOL     OW70998   5.965   1.753   5.507  0.2095  0.7207  0.0748
23186SOL    HW170999   6.048   1.744   5.459 -1.1437 -0.3192 -2.2583
23186SOL    HW271000   5.957   1.847   5.522  1.1136  0.9974 -1.0065
23187SOL     OW71001   1.018   3.353  12.323  0.6742  0.1954 -0.0487
23187SOL    HW171002   1.101   3.401  12.324  1.8820 -1.6909 -1.9912
23187SOL    HW271003   1.023   3.298  12.244 -1.2098 -2.0295  1.2647
23188SOL     OW71004   5.211   4.853   4.823  0.5221  0.1763 -0.1150
23188SOL    HW171005   5.209   4.948   4.836  0.0467  0.1013  0.3828
23188SOL    HW271006   5.303   4.829   4.837  1.0996  0.8367 -2.4008
23189SOL     OW71007   7.832   5.443   5.052 -0.0839 -0.5236 -0.3619
23189SOL    HW171008   7.883   5.418   5.130 -0.4984  0.3625  0.2166
23189SOL    HW271009   7.898   5.465   4.986  0.2804 -0.6657 -0.0480
23190SOL     OW71010   0.749   3.317   7.046 -0.2466  0.0893  0.4599
23190SOL    HW171011   0.727   3.263   6.970  0.9312 -0.7322  0.6782
23190SOL    HW271012   0.694   3.395   7.037  0.4419  0.3807 -1.6590
23191SOL     OW71013   3.918   2.244   9.415  0.1934  0.9955  0.2948
23191SOL    HW171014   3.837   2.285   9.447 -0.7733 -1.3937  1.1264
23191SOL    HW271015   3.977   2.247   9.489  0.1247  0.8798  0.3544
23192SOL     OW71016   6.976   6.539   2.629  0.1359 -0.0960 -0.5656
23192SOL    HW171017   7.042   6.471   2.641 -1.2446 -1.1513  2.0438
23192SOL    HW271018   7.020   6.620   2.656  1.1916 -0.2580 -1.7254
23193SOL     OW71019   3.584   3.532   6.296 -0.1923 -0.5754 -0.1398
23193SOL    HW171020   3.520   3.581   6.243 -0.6109  1.1442  1.8285
23193SOL    HW271021   3.544   3.526   6.382  1.5887 -0.9382  0.6976
23194SOL     OW71022   7.345   5.070   3.076 -0.2797  0.2138 -0.0863
23194SOL    HW171023   7.256   5.085   3.105 -0.2826 -0.4953  0.2845
23194SOL    HW271024   7.343   5.088   2.982 -1.0626 -0.8356 -0.2852
23195SOL     OW71025   4.063   0.262   1.949 -0.1165 -0.1933 -0.3042
23195SOL    HW171026   4.095   0.176   1.922 -1.7991 -0.7463 -0.6589
23195SOL    HW271027   4.103   0.277   2.035 -0.1222 -1.5252 -0.0537
23196SOL     OW71028   5.386   4.897   2.001  0.4956  0.2562 -0.1356
23196SOL    HW171029   5.424   4.951   1.932  1.8525 -0.8610 -0.3138
23196SOL    HW271030   5.320   4.953   2.043 -0.8033  0.7678 -2.6944
23197SOL     OW71031   5.190   7.788   5.005  0.4480 -0.5437  0.1564
23197SOL    HW171032   5.115   7.761   5.057  1.2814  0.5408  2.0090
23197SOL    HW271033   5.181   7.883   4.996  1.1572 -0.5092 -0.3269
23198SOL     OW71034   1.495   1.370   8.534  0.2147  0.3445 -0.3177
23198SOL    HW171035   1.568   1.330   8.580 -0.1756  0.8776  0.7981
23198SOL    HW271036   1.535   1.424   8.467  0.9059  1.3475  0.8631
23199SOL     OW71037   3.991   6.333   4.294 -0.1762  0.3428  0.1853
23199SOL    HW171038   3.956   6.323   4.205  1.8301  0.8311 -0.7158
23199SOL    HW271039   3.991   6.428   4.308  0.3561  0.3275  0.3191
23200SOL     OW71040   5.983   5.717   6.353 -0.0349 -0.1679  0.2600
23200SOL    HW171041   6.073   5.751   6.362 -0.2568  0.2374  0.9957
23200SOL    HW271042   5.962   5.732   6.261  0.9180 -0.9510 -0.1132
23201SOL     OW71043   2.937   3.220   0.122  0.0262  0.6353 -0.4278
23201SOL    HW171044   2.926   3.266   0.205 -1.3260 -0.1644 -0.1279
23201SOL    HW271045   2.955   3.129   0.147  0.2312  0.5092 -1.0122
23202SOL     OW71046   6.362   6.325   4.468 -0.1016 -0.1334 -0.2345
23202SOL    HW171047   6.290   6.273   4.431 -3.6395  5.0180 -1.6549
23202SOL    HW271048   6.324   6.368   4.544  3.1010 -0.5513  1.7845
23203SOL     OW71049   1.079   0.562   4.199 -0.1854 -0.0947 -0.1311
23203SOL    HW171050   1.173   0.563   4.186 -0.2387  1.9442 -0.7891
23203SOL    HW271051   1.057   0.651   4.227 -1.9247 -0.4989 -0.0381
23204SOL     OW71052   2.277   7.478   2.635  0.1481 -0.8823 -0.1308
23204SOL    HW171053   2.221   7.438   2.701 -0.3219  1.0138  0.6861
23204SOL    HW271054   2.217   7.527   2.579  0.6880 -1.3725 -1.1631
23205SOL     OW71055   0.651   4.673   2.636 -0.5880  0.0449 -0.5854
23205SOL    HW171056   0.718   4.605   2.643  0.3159  0.8488 -1.1819
23205SOL    HW271057   0.699   4.751   2.610 -1.5057  1.0923  0.7377
23206SOL     OW71058   7.631   7.085  12.203 -0.1865 -0.4060 -0.1992
23206SOL    HW171059   7.635   7.149  12.132  0.6965 -0.2501 -0.0200
23206SOL    HW271060   7.723   7.069  12.226 -0.2539 -2.9886 -1.3674
23207SOL     OW71061   0.988   5.419  12.241  0.2559  0.2181 -0.3321
23207SOL    HW171062   1.047   5.380  12.307  0.9063  2.1702  0.3215
23207SOL    HW271063   1.036   5.411  12.159  1.2763  1.3452  0.1177
23208SOL     OW71064   3.170   4.995  10.931 -0.2678  0.4246 -0.4892
23208SOL    HW171065   3.236   4.985  10.999 -0.1978  2.4121 -0.1959
23208SOL    HW271066   3.138   4.906  10.914  3.5697 -0.8943 -1.8263
23209SOL     OW71067   7.601   0.158   9.549  0.3158  0.0531 -0.3750
23209SOL    HW171068   7.683   0.134   9.506  0.4248 -0.9193  0.3122
23209SOL    HW271069   7.612   0.249   9.574  0.9685  0.0904 -0.7769
23210SOL     OW71070   4.969   3.784   6.204 -0.0256 -0.1008 -0.0518
23210SOL    HW171071   5.012   3.864   6.175 -0.8843  1.1623  1.9307
23210SOL    HW271072   4.884   3.813   6.237 -0.2532 -1.7835  0.9682
23211SOL     OW71073   7.349   2.176   2.243 -0.4940  0.4576  0.2751
23211SOL    HW171074   7.256   2.159   2.231 -0.4281 -0.0140  0.4109
23211SOL    HW271075   7.387   2.172   2.155 -0.4036 -0.6025  0.3410
23212SOL     OW71076   3.925   5.799   0.469  0.6323 -0.0778 -0.5352
23212SOL    HW171077   3.972   5.722   0.436 -0.2281 -0.9980  0.2847
23212SOL    HW271078   3.838   5.766   0.490 -0.1056  1.3784 -1.1506
23213SOL     OW71079   0.609   4.507   5.150  0.1230  0.4590  0.0586
23213SOL    HW171080   0.572   4.449   5.083  0.3053 -0.3718  0.6531
23213SOL    HW271081   0.569   4.592   5.134 -0.6174  0.0225 -0.4550
23214SOL     OW71082   6.528   1.067   2.785  0.4378  0.3288  0.3341
23214SOL    HW171083   6.566   1.135   2.840  1.5540 -1.6053  2.1250
23214SOL    HW271084   6.589   1.056   2.713  1.7744 -0.6437  1.5575
23215SOL     OW71085   2.946   7.707   7.156  0.4060  0.1490 -0.8222
23215SOL    HW171086   2.857   7.678   7.137  0.2203  0.9079 -1.1743
23215SOL    HW271087   2.982   7.640   7.214 -0.8635  0.5296  0.4548
23216SOL     OW71088   6.113   5.434   5.102 -0.1797  1.1083  0.2764
23216SOL    HW171089   6.078   5.504   5.157 -2.3369 -0.0843  0.5239
23216SOL    HW271090   6.086   5.353   5.145  0.2294  0.1377 -1.2092
23217SOL     OW71091   7.808   4.596   0.774 -0.4888 -0.6289 -0.2821
23217SOL    HW171092   7.787   4.689   0.781  1.3363 -0.1423 -0.8503
23217SOL    HW271093   7.788   4.574   0.683  1.1195 -0.2227 -0.7586
23218SOL     OW71094   1.736   7.259   4.688  0.0721 -0.7168 -0.1110
23218SOL    HW171095   1.669   7.220   4.743 -0.0832 -1.2533 -0.6759
23218SOL    HW271096   1.693   7.334   4.647 -0.6764 -1.9416 -1.6603
23219SOL     OW71097   0.392   3.392   2.478  0.0117 -0.2688  0.0963
23219SOL    HW171098   0.341   3.319   2.511 -0.4037 -0.2644 -0.5157
23219SOL    HW271099   0.420   3.440   2.556  0.7210 -1.3589  0.5376
23220SOL     OW71100   4.497   5.213   5.135 -0.6867 -0.2190 -0.0569
23220SOL    HW171101   4.500   5.227   5.230 -1.1474 -3.1406  0.4821
23220SOL    HW271102   4.580   5.248   5.103 -0.1817  0.1399  1.5171
23221SOL     OW71103   2.531   6.114   8.175  0.9022 -0.3499  0.5843
23221SOL    HW171104   2.452   6.160   8.204  1.0341 -0.0841  0.5262
23221SOL    HW271105   2.499   6.052   8.109  0.6279 -0.8377  1.1677
23222SOL     OW71106   5.064   1.798   2.199  0.0693 -0.0200  0.4252
23222SOL    HW171107   5.106   1.871   2.154  0.1778 -0.5808 -0.3948
23222SOL    HW271108   4.972   1.805   2.175 -0.0943  0.3806  1.1041
23223SOL     OW71109   7.576   6.849   1.841 -0.0116 -0.2929  0.4372
23223SOL    HW171110   7.593   6.935   1.802 -0.3419  0.1370  1.2285
23223SOL    HW271111   7.647   6.793   1.808  1.7141  0.9042  1.9195
23224SOL     OW71112   7.254   1.219   2.112  0.0311 -0.4649  0.5764
23224SOL    HW171113   7.232   1.262   2.194 -1.6595  0.8636 -0.5202
23224SOL    HW271114   7.182   1.157   2.097  1.8829 -3.0688  1.5946
23225SOL     OW71115   0.565   3.361   8.464  0.0220 -0.1536  0.1198
23225SOL    HW171116   0.536   3.452   8.462 -1.1521 -0.5191 -1.4428
23225SOL    HW271117   0.655   3.365   8.496 -0.4930  1.3851  1.5321
23226SOL     OW71118   5.242   5.179   3.065 -0.2004 -0.1816  0.5906
23226SOL    HW171119   5.238   5.246   3.133  0.4601 -0.2101  0.6671
23226SOL    HW271120   5.335   5.173   3.043 -0.5275  0.6595 -1.1454
23227SOL     OW71121   7.110   5.370  10.156 -0.1021 -0.0084  0.2838
23227SOL    HW171122   7.140   5.281  10.135 -0.1851  0.1450 -0.5356
23227SOL    HW271123   7.089   5.408  10.071  1.0297  1.1860  0.5090
23228SOL     OW71124   0.917   6.314  11.129  0.2377  0.2177 -0.4821
23228SOL    HW171125   0.832   6.289  11.165  1.5594 -2.4686  1.1061
23228SOL    HW271126   0.933   6.250  11.058  1.9185 -0.9717  0.8820
23229SOL     OW71127   7.076   7.022   0.082 -0.4729 -0.5998  0.2757
23229SOL    HW171128   7.121   7.003   0.164  1.1813  1.6842 -0.0025
23229SOL    HW271129   7.138   6.998   0.014 -0.0461  1.5045 -0.1506
23230SOL     OW71130   6.921   3.894   0.617  0.3437  0.2204 -0.5416
23230SOL    HW171131   6.939   3.909   0.524  0.5623  0.6934 -0.4241
23230SOL    HW271132   6.882   3.976   0.648  1.3466  0.4967  0.0526
23231SOL     OW71133   5.614   4.316  10.938 -0.0288 -0.9280 -0.4375
23231SOL    HW171134   5.565   4.259  10.879 -1.7659 -0.6017  0.6100
23231SOL    HW271135   5.601   4.404  10.903 -0.1864 -0.8434 -0.1718
23232SOL     OW71136   4.940   6.027   9.194 -0.5402  0.1765  0.1130
23232SOL    HW171137   4.927   6.103   9.136  0.1091  0.1171 -0.1145
23232SOL    HW271138   5.006   5.974   9.149  1.3891  1.0377  1.7682
23233SOL     OW71139   4.710   0.492   9.161  0.7281  0.2600  0.2449
23233SOL    HW171140   4.690   0.574   9.116  0.2422 -0.3139 -0.6089
23233SOL    HW271141   4.727   0.519   9.252  0.3252  1.2713  0.0394
23234SOL     OW71142   6.698   0.991   6.663  0.6447  0.3880  0.0696
23234SOL    HW171143   6.625   0.948   6.619  0.3239  0.2444  0.7353
23234SOL    HW271144   6.711   0.941   6.743 -0.0463  1.8044  1.0946
23235SOL     OW71145   7.826   3.905   9.877 -0.3108  0.2441 -0.4756
23235SOL    HW171146   7.810   3.937   9.788  0.3246  1.3119 -0.2260
23235SOL    HW271147   7.846   3.984   9.928 -0.3806 -0.3784  0.5540
23236SOL     OW71148   7.897   3.764   0.003  0.2252  0.2680  0.1173
23236SOL    HW171149   7.848   3.846   0.005 -1.6069 -0.7352 -1.1313
23236SOL    HW271150   7.953   3.768   0.081  1.6949  3.5372 -0.9627
23237SOL     OW71151   1.424   2.146   8.993  0.2869  0.5973 -0.1835
23237SOL    HW171152   1.487   2.075   9.002 -0.8069 -0.3361  0.4620
23237SOL    HW271153   1.429   2.171   8.901  2.5289  1.4785  0.1223
23238SOL     OW71154   7.859   2.185   9.608  0.1874  0.7409  0.3701
23238SOL    HW171155   7.907   2.261   9.640  0.9562 -0.0948  1.2645
23238SOL    HW271156   7.855   2.197   9.513  0.8231  1.5874  0.4443
23239SOL     OW71157   3.106   7.042  11.029  0.1940  0.0779 -0.1342
23239SOL    HW171158   3.186   7.084  11.060  0.5055 -0.9545  0.4961
23239SOL    HW271159   3.074   6.993  11.104 -0.9531  0.3471 -0.4307
23240SOL     OW71160   4.883   5.619  10.918  0.1979  0.6296  0.0702
23240SOL    HW171161   4.840   5.680  10.858  0.3490  0.2877 -0.3867
23240SOL    HW271162   4.935   5.562  10.862  0.1851  0.1776  0.5114
23241SOL     OW71163   5.747   7.348   4.253  0.0709  0.1021  0.7908
23241SOL    HW171164   5.692   7.378   4.325  0.1216 -0.7845  1.2169
23241SOL    HW271165   5.822   7.306   4.296  0.0591 -0.5216  0.2286
23242SOL     OW71166   5.533   6.819   8.230  0.1768  0.1053 -0.0976
23242SOL    HW171167   5.592   6.894   8.240  0.8909 -0.4428 -0.1756
23242SOL    HW271168   5.565   6.755   8.294 -0.3943 -0.1602 -0.0717
23243SOL     OW71169   5.156   1.215   8.415  0.0857  0.5614  0.4599
23243SOL    HW171170   5.100   1.289   8.390  0.0943 -0.2120 -2.0882
23243SOL    HW271171   5.095   1.143   8.431  0.1762  0.6754  1.3908
23244SOL     OW71172   6.277   1.045   9.710  0.4550 -0.6656  0.2181
23244SOL    HW171173   6.223   0.973   9.677 -0.9969 -0.2200  1.5024
23244SOL    HW271174   6.358   1.003   9.739 -0.3259 -1.7832  0.8570
23245SOL     OW71175   3.424   2.717   6.990  0.3338 -0.2143 -0.4171
23245SOL    HW171176   3.473   2.776   6.933 -0.5313  1.5595  0.5530
23245SOL    HW271177   3.383   2.654   6.931 -0.7077  1.6782 -1.8305
23246SOL     OW71178   7.252   6.586   8.648  0.2756 -0.0238 -0.2757
23246SOL    HW171179   7.169   6.545   8.626  0.9182 -1.3731 -0.3137
23246SOL    HW271180   7.277   6.634   8.569 -0.2115 -0.0474 -0.4464
23247SOL     OW71181   2.041   5.616   2.945 -0.1646  0.4045 -0.4801
23247SOL    HW171182   2.122   5.611   2.996 -0.3478 -1.2005 -0.3090
23247SOL    HW271183   2.057   5.685   2.881  0.6074  1.4610  0.8055
23248SOL     OW71184   6.802   7.101   6.656 -0.1784  0.4508 -0.5932
23248SOL    HW171185   6.761   7.044   6.591  0.5965  0.7643 -1.3760
23248SOL    HW271186   6.729   7.149   6.695 -0.6513  0.3053 -1.2805
23249SOL     OW71187   1.847   7.749   4.651  0.0514  0.4207 -0.2226
23249SOL    HW171188   1.860   7.697   4.731  0.9933  1.5235  0.3935
23249SOL    HW271189   1.865   7.839   4.679  0.9238  0.7733 -1.8005
23250SOL     OW71190   1.942   2.359   4.648 -0.0335  0.3013  0.2342
23250SOL    HW171191   2.034   2.350   4.624  0.8980  1.6263  2.9805
23250SOL    HW271192   1.919   2.274   4.687  0.3924  0.3853  0.6710
23251SOL     OW71193   1.550   3.367   9.997  0.7307 -0.5349 -0.5387
23251SOL    HW171194   1.529   3.449  10.042 -0.2690 -0.5939 -0.8762
23251SOL    HW271195   1.637   3.383   9.958 -0.0111  0.8628 -1.7367
23252SOL     OW71196   1.249   6.499   4.876  0.3498  0.7821  0.0491
23252SOL    HW171197   1.292   6.413   4.871  0.5109  0.8457  0.3711
23252SOL    HW271198   1.156   6.478   4.886  0.2213  0.6388 -1.1969
23253SOL     OW71199   6.946   6.131   2.539 -0.2837 -0.4401 -0.1280
23253SOL    HW171200   6.952   6.044   2.579 -0.0872  0.0295  0.8956
23253SOL    HW271201   7.035   6.167   2.546 -0.7807  0.5807  1.1861
23254SOL     OW71202   6.960   7.764  10.627  0.1591  0.3280  0.3245
23254SOL    HW171203   6.916   7.740  10.545  2.2227 -0.0318 -0.7382
23254SOL    HW271204   6.931   7.854  10.644 -1.6648 -0.1906  0.1920
23255SOL     OW71205   3.456   4.556   5.969 -0.4247  0.1870 -0.3038
23255SOL    HW171206   3.533   4.499   5.967  0.6325  1.5885 -0.6760
23255SOL    HW271207   3.411   4.539   5.886  0.2015  0.3089 -0.6758
23256SOL     OW71208   5.667   1.991   7.657  0.5337 -0.0626 -0.7003
23256SOL    HW171209   5.686   2.083   7.638 -1.1958  1.1700  2.7204
23256SOL    HW271210   5.615   1.961   7.582 -0.5004  2.3637 -1.0493
23257SOL     OW71211   3.619   4.226   1.305  0.3868  0.6263  0.2091
23257SOL    HW171212   3.657   4.189   1.385 -1.2582 -1.2899  0.1719
23257SOL    HW271213   3.553   4.162   1.278 -0.6914  2.3360 -1.4224
23258SOL     OW71214   0.031   3.095   1.601 -0.1863 -0.1464 -0.7170
23258SOL    HW171215   0.087   3.081   1.678 -0.7556  0.3710 -0.1934
23258SOL    HW271216  -0.047   3.041   1.618 -2.1024  2.8653  0.9996
23259SOL     OW71217   0.803   5.805   1.243  0.0166  0.4403 -0.2452
23259SOL    HW171218   0.817   5.778   1.152 -0.6815  1.7774 -0.7706
23259SOL    HW271219   0.844   5.892   1.248  0.0798  0.3611  0.7373
23260SOL     OW71220   1.792   6.126   8.620 -0.1014  0.4240  0.1670
23260SOL    HW171221   1.783   6.221   8.624 -3.8795  0.1889  0.8570
23260SOL    HW271222   1.703   6.093   8.629  1.0986 -3.2332  0.2958
23261SOL     OW71223   5.695   4.154  12.419  0.1788 -0.0793 -0.3376
23261SOL    HW171224   5.652   4.073  12.445  2.0730 -0.9599  0.2593
23261SOL    HW271225   5.641   4.189  12.349 -1.1324 -1.4271 -0.0369
23262SOL     OW71226   0.715   7.511   6.743  0.6283  0.1602 -0.5289
23262SOL    HW171227   0.643   7.514   6.806 -0.0996 -0.8315 -1.2775
23262SOL    HW271228   0.770   7.439   6.773  0.8272  0.3362 -0.4669
23263SOL     OW71229   3.460   0.225  11.671  0.1220 -0.4849  0.3882
23263SOL    HW171230   3.372   0.262  11.679  0.3325  0.0262  0.3773
23263SOL    HW271231   3.456   0.171  11.592  0.3763  1.1767 -0.8187
23264SOL     OW71232   6.883   1.961  10.681 -0.7715 -0.4745 -0.1495
23264SOL    HW171233   6.806   1.994  10.635 -0.1971 -0.0767 -0.8629
23264SOL    HW271234   6.954   1.969  10.616 -0.2851 -1.5350  0.2391
23265SOL     OW71235   0.192   4.756  12.443 -0.1986 -0.7185 -0.4496
23265SOL    HW171236   0.259   4.740  12.510 -0.9815 -0.9380  0.2934
23265SOL    HW271237   0.236   4.739  12.360  0.2146 -2.4674  0.1028
23266SOL     OW71238   3.356   1.220   2.077 -0.3343  0.0650  0.7414
23266SOL    HW171239   3.334   1.158   2.147 -0.8369  0.2942  0.7898
23266SOL    HW271240   3.430   1.270   2.113 -0.2245 -0.2010  0.8854
23267SOL     OW71241   4.688   5.570   5.367 -0.8636  0.2183 -0.2067
23267SOL    HW171242   4.673   5.664   5.374 -1.5891  0.0096  1.3868
23267SOL    HW271243   4.640   5.532   5.440  0.1013 -1.3285 -0.3265
23268SOL     OW71244   6.226   4.681  10.712  0.3580  0.5438  0.1039
23268SOL    HW171245   6.288   4.609  10.718 -2.2692 -1.8350  0.9789
23268SOL    HW271246   6.191   4.674  10.623  0.0520  0.6981  0.2131
23269SOL     OW71247   4.293   5.026   5.102  0.0194  0.7340 -0.1834
23269SOL    HW171248   4.338   5.103   5.136  0.6222  1.0339 -1.5935
23269SOL    HW271249   4.206   5.059   5.078  0.0404  0.8191 -0.1444
23270SOL     OW71250   3.949   0.577   4.892  0.4093 -0.5253 -0.3838
23270SOL    HW171251   3.992   0.639   4.951 -0.5019  0.1702 -0.4186
23270SOL    HW271252   3.856   0.601   4.897  0.1174 -1.5214 -0.8484
23271SOL     OW71253   5.329   4.513   4.796 -0.5547 -0.4322  0.2798
23271SOL    HW171254   5.365   4.429   4.823  0.2392  0.1474  1.0909
23271SOL    HW271255   5.399   4.554   4.745 -2.1326 -1.6480 -3.1856
23272SOL     OW71256   4.071   5.335  10.782  0.0132  0.3485 -0.0541
23272SOL    HW171257   4.012   5.389  10.730 -0.3114  0.4623  0.4230
23272SOL    HW271258   4.019   5.311  10.859 -0.3948 -1.8938 -0.9312
23273SOL     OW71259   1.016   0.352   8.201 -0.0551  0.1626  0.2480
23273SOL    HW171260   1.103   0.316   8.213  0.3813  0.1377 -2.4698
23273SOL    HW271261   0.986   0.373   8.290  1.7402 -1.9822  1.4422
23274SOL     OW71262   5.590   4.641  10.847 -0.3084 -0.0839 -0.2837
23274SOL    HW171263   5.651   4.618  10.777 -0.4240 -2.3299  0.2856
23274SOL    HW271264   5.646   4.656  10.923 -0.3757 -0.8082 -0.0890
23275SOL     OW71265   1.018   3.277   3.591 -0.5702 -0.2630  0.3916
23275SOL    HW171266   0.982   3.201   3.638 -0.4635  0.0686  1.0272
23275SOL    HW271267   0.954   3.346   3.604  0.4968  0.4991  2.0073
23276SOL     OW71268   1.342   6.928   7.185 -0.2498  0.2020 -0.8661
23276SOL    HW171269   1.355   7.020   7.208  0.5347 -0.0854 -0.1324
23276SOL    HW271270   1.373   6.922   7.094  0.1651  0.5610 -0.7529
23277SOL     OW71271   6.338   2.814   4.803 -0.4280 -0.2940  0.2432
23277SOL    HW171272   6.260   2.810   4.748 -0.4155 -1.7146  0.2906
23277SOL    HW271273   6.402   2.759   4.757  0.1178 -0.2053  0.8816
23278SOL     OW71274   0.044   2.142  10.424 -0.1904 -0.0738 -0.1381
23278SOL    HW171275   0.003   2.118  10.341  2.6919 -1.0997 -1.3950
23278SOL    HW271276  -0.003   2.091  10.490 -0.6590 -1.5256 -1.5491
23279SOL     OW71277   6.681   7.005   9.923 -0.3823 -0.2098 -0.3751
23279SOL    HW171278   6.599   7.053   9.934 -0.7872 -0.8688 -0.5070
23279SOL    HW271279   6.655   6.915   9.908  0.3781 -0.4787 -0.1428
23280SOL     OW71280   0.616   2.181   4.675 -0.4826  0.7002  0.3280
23280SOL    HW171281   0.585   2.234   4.748 -1.2217  0.1192  0.4466
23280SOL    HW271282   0.671   2.240   4.624 -0.2776  1.2233  1.1351
23281SOL     OW71283   0.960   2.460   7.441  0.4101 -0.2053 -0.2258
23281SOL    HW171284   0.985   2.368   7.449 -0.2056 -0.4064 -0.4995
23281SOL    HW271285   0.947   2.490   7.531 -1.3735 -0.9703 -0.1872
23282SOL     OW71286   1.856   4.400   1.923  0.3801 -0.2287  0.4923
23282SOL    HW171287   1.897   4.483   1.900  0.5007 -0.4151  0.0278
23282SOL    HW271288   1.775   4.397   1.872  0.1085 -0.1602  0.9083
23283SOL     OW71289   5.771   6.946   5.110  0.2833  0.2832 -0.2219
23283SOL    HW171290   5.748   6.867   5.061  0.5745 -1.6199  2.4906
23283SOL    HW271291   5.689   6.996   5.114 -0.4012 -0.7726 -0.4731
23284SOL     OW71292   5.410   1.637   2.856  0.3412  0.4410 -0.1820
23284SOL    HW171293   5.487   1.585   2.832 -0.0243  0.0713 -0.5744
23284SOL    HW271294   5.339   1.600   2.803  0.0161  1.1533 -0.2532
23285SOL     OW71295   3.013   7.072   2.946  0.0067  0.8011  0.5330
23285SOL    HW171296   2.946   7.139   2.958 -0.4144  0.3150  0.9526
23285SOL    HW271297   3.022   7.062   2.851 -1.9411 -0.5240  0.4404
23286SOL     OW71298   4.951   1.314   1.772 -0.1813  0.3587 -0.1487
23286SOL    HW171299   4.986   1.392   1.729  0.3538 -0.0407 -0.4658
23286SOL    HW271300   4.876   1.345   1.822  1.5818  1.5842  1.9063
23287SOL     OW71301   6.776   2.957   5.325  0.3105 -0.3157 -0.0956
23287SOL    HW171302   6.723   2.953   5.405 -0.3050 -0.5583 -0.5079
23287SOL    HW271303   6.715   2.936   5.255  0.7171  0.4644 -0.6963
23288SOL     OW71304   5.296   6.541   3.106 -0.1404  0.0706  0.3210
23288SOL    HW171305   5.242   6.606   3.060  0.0677  2.5626  3.3025
23288SOL    HW271306   5.382   6.549   3.064 -1.1956 -1.8860 -2.5362
23289SOL     OW71307   1.205   5.885   4.425 -0.1421 -0.2882  0.3619
23289SOL    HW171308   1.180   5.837   4.345 -0.6477 -1.5207  1.2339
23289SOL    HW271309   1.121   5.908   4.465  0.1150 -0.4879  1.0110
23290SOL     OW71310   4.682   1.000   6.833  0.0126 -0.2217 -0.1278
23290SOL    HW171311   4.683   1.065   6.763 -0.5392  0.7959  0.7865
23290SOL    HW271312   4.606   0.945   6.813 -1.1120  1.0434  0.5107
23291SOL     OW71313   0.059   1.447   1.670  0.3344 -0.2982 -0.0282
23291SOL    HW171314   0.078   1.465   1.762  1.4147  0.5667 -0.3884
23291SOL    HW271315  -0.030   1.479   1.657  0.1291 -0.5399  0.7460
23292SOL     OW71316   5.294   7.059   3.020 -0.0481  0.2788 -0.0769
23292SOL    HW171317   5.317   7.120   3.090  2.4694 -1.5019  0.7939
23292SOL    HW271318   5.208   7.026   3.045 -0.2801  1.4927  0.8514
23293SOL     OW71319   2.089   0.535   8.377 -0.1103  0.5461  0.0615
23293SOL    HW171320   2.060   0.620   8.345  1.5836  0.5752 -1.5456
23293SOL    HW271321   2.091   0.544   8.472  0.6186  2.5034 -0.1114
23294SOL     OW71322   6.173   4.805   6.996 -0.4702  0.0806  0.1490
23294SOL    HW171323   6.210   4.725   7.032  0.7977 -0.0312 -1.2784
23294SOL    HW271324   6.233   4.829   6.924 -1.9974  1.1142 -0.8440
23295SOL     OW71325   2.307   0.437  10.557 -0.3771 -0.1900 -0.0481
23295SOL    HW171326   2.363   0.501  10.513 -1.5107  2.3001  1.8617
23295SOL    HW271327   2.342   0.432  10.646 -2.6244  0.9049  0.9912
23296SOL     OW71328   7.820   0.663   8.782 -0.3427  0.6534 -0.1358
23296SOL    HW171329   7.876   0.704   8.715 -0.0672  2.7767  1.3185
23296SOL    HW271330   7.880   0.645   8.855 -0.6682 -1.5105 -0.3344
23297SOL     OW71331   6.704   0.075   5.562 -0.1583 -0.0845 -0.6950
23297SOL    HW171332   6.654   0.149   5.527 -1.1301  0.1312  1.0089
23297SOL    HW271333   6.657  -0.002   5.531 -0.4116  0.0779 -0.7226
23298SOL     OW71334   0.897   3.540   5.271  0.4264  0.1721 -0.6914
23298SOL    HW171335   0.984   3.523   5.233  1.5974  1.6819  1.1403
23298SOL    HW271336   0.851   3.456   5.262  2.6128 -1.1529 -0.3882
23299SOL     OW71337   6.606   6.036   7.009  0.5047 -0.0367 -1.3409
23299SOL    HW171338   6.643   6.105   7.065 -0.2355  0.0374 -0.9329
23299SOL    HW271339   6.680   6.007   6.956  1.3954 -0.5775  0.1336
23300SOL     OW71340   1.843   6.090   0.651  0.1365  0.3357 -0.3317
23300SOL    HW171341   1.841   6.181   0.621 -0.3020  0.5232  0.2368
23300SOL    HW271342   1.844   6.097   0.747 -2.0540 -0.2559 -0.2182
23301SOL     OW71343   1.721   4.315   1.578 -0.2903 -0.2276  0.4412
23301SOL    HW171344   1.677   4.394   1.546  0.5748  0.1513  0.1597
23301SOL    HW271345   1.667   4.243   1.546  0.5326  0.1212 -1.9354
23302SOL     OW71346   0.950   2.073   3.368  0.0739  0.0026 -0.0831
23302SOL    HW171347   0.974   1.991   3.327  1.4692  0.4603 -0.2302
23302SOL    HW271348   1.018   2.089   3.433 -0.4643  0.7777  0.3205
23303SOL     OW71349   0.187   5.638   7.248 -0.1720 -0.0342  0.3527
23303SOL    HW171350   0.152   5.717   7.206  1.3621  1.3068  1.4574
23303SOL    HW271351   0.217   5.668   7.334  0.6067 -1.8032  0.7467
23304SOL     OW71352   6.975   1.250   1.069  0.6169 -0.0136  0.1061
23304SOL    HW171353   7.035   1.202   1.013  0.4475 -1.2617  0.9608
23304SOL    HW271354   6.916   1.295   1.008  1.1139 -0.4549 -0.7103
23305SOL     OW71355   1.019   1.198   5.368 -0.1623  0.3632 -0.7071
23305SOL    HW171356   0.985   1.265   5.308 -0.4170  0.4046 -0.5196
23305SOL    HW271357   1.113   1.212   5.369 -0.1179  0.1295 -1.3784
23306SOL     OW71358   5.762   2.799   2.817 -0.4594  0.3972 -0.2619
23306SOL    HW171359   5.694   2.734   2.832  0.4203 -0.9222 -1.6631
23306SOL    HW271360   5.747   2.866   2.884 -2.3386 -0.4691  0.2420
23307SOL     OW71361   3.595   4.925   2.548  0.0973  0.0755 -0.0208
23307SOL    HW171362   3.499   4.923   2.540  0.1572 -1.6544 -0.7064
23307SOL    HW271363   3.612   4.996   2.609 -1.6564  0.1031  0.4972
23308SOL     OW71364   5.158   5.040   3.365 -0.1635 -0.5860  0.5042
23308SOL    HW171365   5.192   5.053   3.454  1.8762  0.5822 -0.3795
23308SOL    HW271366   5.208   4.965   3.332  0.9907  0.5524 -0.4774
23309SOL     OW71367   4.186   2.725   2.514 -0.3742  0.2549  0.2447
23309SOL    HW171368   4.120   2.790   2.537 -1.4478 -1.7900  3.5616
23309SOL    HW271369   4.138   2.655   2.470  0.5925  0.9784 -2.1955
23310SOL     OW71370   1.415   5.304   3.455 -0.0566 -0.5124 -0.2326
23310SOL    HW171371   1.421   5.319   3.361  0.4535 -0.0683 -0.1292
23310SOL    HW271372   1.484   5.358   3.493 -1.7855  1.2327  0.6012
23311SOL     OW71373   7.749   1.489   1.601 -0.2464 -0.2338  0.1523
23311SOL    HW171374   7.735   1.416   1.541  0.1274  0.9966 -1.4824
23311SOL    HW271375   7.664   1.531   1.608 -0.1147  0.0973 -0.1793
23312SOL     OW71376   3.103   7.553  11.073 -0.0483  0.3862 -0.3378
23312SOL    HW171377   3.089   7.498  11.150  0.4714 -1.9861 -1.8137
23312SOL    HW271378   3.181   7.604  11.093  0.6756 -0.9347  0.3604
23313SOL     OW71379   6.434   0.702   2.751 -0.4679  0.2119 -0.3386
23313SOL    HW171380   6.403   0.617   2.721 -1.5996  1.4141 -2.9288
23313SOL    HW271381   6.354   0.752   2.769  0.1677  0.8331  0.9168
23314SOL     OW71382   2.490   6.520  10.564  0.4584  0.5421 -0.2412
23314SOL    HW171383   2.462   6.499  10.654 -1.3033  0.8412 -0.6669
23314SOL    HW271384   2.585   6.526  10.569  0.4608 -0.2206  1.4400
23315SOL     OW71385   4.492   0.011   8.737 -0.2473 -0.5796  0.1084
23315SOL    HW171386   4.425  -0.057   8.735  0.2414 -1.0897  0.8020
23315SOL    HW271387   4.570  -0.029   8.701  0.3264 -0.7277  1.4427
23316SOL     OW71388   2.946   7.606   5.986 -0.3217 -0.0247  0.3156
23316SOL    HW171389   2.949   7.672   6.055  0.3745 -0.3128  0.5689
23316SOL    HW271390   2.997   7.533   6.021  1.6329  0.5165 -1.2291
23317SOL     OW71391   1.060   5.355   7.056  0.3025 -0.6982 -0.1486
23317SOL    HW171392   1.122   5.293   7.093 -0.1017 -0.2441  1.3462
23317SOL    HW271393   1.105   5.439   7.057 -0.0108 -0.5315  0.0865
23318SOL     OW71394   3.541   4.084   4.782 -0.0804 -0.4802  0.4524
23318SOL    HW171395   3.536   3.995   4.747  0.3467 -0.8671  1.3440
23318SOL    HW271396   3.550   4.140   4.705 -2.0275 -1.0453 -0.2400
23319SOL     OW71397   4.336   3.563   6.418 -0.2756  0.1478 -0.4530
23319SOL    HW171398   4.260   3.559   6.475 -0.0310 -0.2920 -0.1588
23319SOL    HW271399   4.400   3.505   6.459 -0.9878 -2.2641 -2.5177
23320SOL     OW71400   0.993   6.770   7.634  0.2090  0.4034  0.2010
23320SOL    HW171401   0.996   6.677   7.613  1.8951  0.2735  0.9249
23320SOL    HW271402   1.046   6.812   7.566 -1.0990  0.9588 -0.5313
23321SOL     OW71403   7.600   7.742   0.766  0.1325 -0.8028 -0.2266
23321SOL    HW171404   7.595   7.716   0.858  0.6916  1.1669  0.4109
23321SOL    HW271405   7.694   7.743   0.747  0.0969  0.0999 -0.3951
23322SOL     OW71406   4.799   5.225   6.217 -0.3108 -0.0491  0.2502
23322SOL    HW171407   4.837   5.163   6.155 -1.1240 -1.9478  1.5339
23322SOL    HW271408   4.707   5.230   6.192  0.0064  1.7622 -0.6761
23323SOL     OW71409   6.510   2.859   5.519  0.2529 -0.1985  0.4853
23323SOL    HW171410   6.582   2.909   5.558  0.2469 -0.6445  1.0775
23323SOL    HW271411   6.499   2.784   5.576 -0.0143 -0.6684 -0.1695
23324SOL     OW71412   0.247   5.397   0.632 -0.2489 -0.5207 -0.7548
23324SOL    HW171413   0.341   5.412   0.618  0.1261 -2.6127 -0.8267
23324SOL    HW271414   0.206   5.425   0.550  0.2528  0.6246 -0.6433
23325SOL     OW71415   3.180   7.796   1.117 -0.1416 -0.1467 -0.2586
23325SOL    HW171416   3.234   7.718   1.132 -0.7806 -0.5377  0.0361
23325SOL    HW271417   3.133   7.778   1.036 -0.7356 -0.3216  0.1236
23326SOL     OW71418   1.090   6.860  11.927 -0.5756  0.3914  0.1151
23326SOL    HW171419   1.036   6.929  11.889 -0.3886  0.0515 -0.7913
23326SOL    HW271420   1.040   6.829  12.003  0.1880  2.8003  1.7363
23327SOL     OW71421   7.741   2.033  11.992  0.7198  0.3236 -0.1683
23327SOL    HW171422   7.677   2.018  11.921 -1.0345 -0.7079  1.5244
23327SOL    HW271423   7.800   1.958  11.986 -0.0975 -0.3663  0.1118
23328SOL     OW71424   5.910   0.236   7.350  0.1579  0.0456 -0.0512
23328SOL    HW171425   5.935   0.157   7.397  1.0606  0.7064  0.6080
23328SOL    HW271426   5.814   0.238   7.356  0.0242 -1.5375 -1.0035
23329SOL     OW71427   7.451   2.103   7.766 -0.4125 -0.2880  0.1654
23329SOL    HW171428   7.497   2.020   7.778 -1.0650 -0.7331 -0.3487
23329SOL    HW271429   7.370   2.093   7.817 -0.9256 -0.3343 -0.6387
23330SOL     OW71430   5.623   3.201   2.673 -0.0151 -0.0250 -0.6496
23330SOL    HW171431   5.612   3.169   2.763 -0.1660 -0.9677 -0.9934
23330SOL    HW271432   5.535   3.195   2.635  0.4711 -1.9958 -1.6028
23331SOL     OW71433   5.229   6.385  11.899 -0.4931 -0.1653  0.1183
23331SOL    HW171434   5.216   6.474  11.930  2.0218  0.1218  0.5871
23331SOL    HW271435   5.178   6.380  11.818  1.0338  2.4731 -1.1543
23332SOL     OW71436   5.074   5.991   4.810  0.5671 -0.3613 -0.1897
23332SOL    HW171437   5.151   5.953   4.852 -0.2994 -0.5232  1.3203
23332SOL    HW271438   5.101   6.080   4.786  0.8698  0.0252  1.4604
23333SOL     OW71439   6.827   1.155   1.266  0.0788 -0.0615  0.2817
23333SOL    HW171440   6.741   1.176   1.229  0.3691 -3.0668 -2.6165
23333SOL    HW271441   6.889   1.193   1.204  0.8636  0.8862  1.6009
23334SOL     OW71442   2.122   4.461   0.501  0.3069  0.1254  0.6252
23334SOL    HW171443   2.075   4.380   0.523  0.1346  0.1933  0.5021
23334SOL    HW271444   2.205   4.453   0.548  1.3480 -1.2807 -1.3156
23335SOL     OW71445   4.633   2.324   3.471 -0.7226 -0.5000 -0.4018
23335SOL    HW171446   4.567   2.305   3.403 -1.1429 -1.3938  0.2296
23335SOL    HW271447   4.676   2.404   3.441 -0.9187 -0.8525 -1.7136
23336SOL     OW71448   5.807   7.445  10.062  0.2150  0.3889  0.3513
23336SOL    HW171449   5.823   7.489  10.145 -0.9169  0.4469  0.5553
23336SOL    HW271450   5.894   7.418  10.032  0.7888  1.5973  0.8597
23337SOL     OW71451   6.324   3.997  10.826  0.0644  0.0444 -0.4452
23337SOL    HW171452   6.234   3.985  10.795  0.4932 -0.6837 -1.4333
23337SOL    HW271453   6.375   3.932  10.778  1.3911  1.5044 -1.0892
23338SOL     OW71454   4.345   7.105   2.651  0.5187 -0.4273  0.1270
23338SOL    HW171455   4.384   7.192   2.636  0.4624 -0.3555  0.3855
23338SOL    HW271456   4.309   7.080   2.566  0.3167 -0.0857  0.1069
23339SOL     OW71457   1.813   0.302   4.305 -0.3492  0.6219  0.8085
23339SOL    HW171458   1.807   0.361   4.380 -1.5897  0.6776  0.6858
23339SOL    HW271459   1.882   0.241   4.329 -0.5001  0.8327  1.8656
23340SOL     OW71460   2.816   5.620   6.163  0.3537 -0.3206 -0.4899
23340SOL    HW171461   2.812   5.551   6.097  1.7178 -0.0650 -0.8614
23340SOL    HW271462   2.798   5.700   6.114  0.3700 -0.2385 -0.3611
23341SOL     OW71463   0.742   7.826   8.535  0.5080 -0.7664  0.2155
23341SOL    HW171464   0.747   7.920   8.553  0.6856 -0.5081 -1.0789
23341SOL    HW271465   0.788   7.815   8.451 -1.5120 -1.6361 -0.8465
23342SOL     OW71466   0.012   5.028   5.928  0.4964 -0.0116 -0.6087
23342SOL    HW171467   0.073   5.010   5.857  0.3540 -1.3234 -0.4175
23342SOL    HW271468  -0.062   5.071   5.885  0.9973  0.4532 -1.0278
23343SOL     OW71469   2.829   1.283   7.631  0.5152 -0.1497  0.4699
23343SOL    HW171470   2.823   1.349   7.700 -1.4055 -1.1022  1.3059
23343SOL    HW271471   2.824   1.200   7.678  0.6753 -0.8415 -0.7141
23344SOL     OW71472   1.626   0.582   9.239 -0.0492  0.0339  0.4565
23344SOL    HW171473   1.634   0.496   9.279  1.0335 -0.1874 -0.1770
23344SOL    HW271474   1.534   0.606   9.249 -0.3587 -1.1912  0.6378
23345SOL     OW71475   1.036   1.108   9.199  0.6649 -0.0307 -0.0046
23345SOL    HW171476   1.083   1.109   9.115  1.2308 -0.6246  0.3012
23345SOL    HW271477   1.075   1.179   9.249  0.9259 -0.2291  0.0754
23346SOL     OW71478   3.597   1.113   7.708  0.0749 -0.0174  0.2921
23346SOL    HW171479   3.659   1.103   7.780 -0.8962  0.5816  1.2384
23346SOL    HW271480   3.577   1.023   7.681  0.0965 -0.2647  1.0811
23347SOL     OW71481   7.562   5.386   8.523 -0.0639 -0.0721  0.2588
23347SOL    HW171482   7.622   5.429   8.584  0.4236 -1.2411  0.6404
23347SOL    HW271483   7.599   5.298   8.512 -1.4469 -0.6635  0.1267
23348SOL     OW71484   1.205   2.644  12.053  0.1795  0.3959 -0.6612
23348SOL    HW171485   1.136   2.581  12.032  1.9214 -1.2205 -1.8733
23348SOL    HW271486   1.188   2.719  11.996 -0.8599  0.2474 -0.5600
23349SOL     OW71487   2.223   2.703  10.658 -0.2798  0.1903 -0.1195
23349SOL    HW171488   2.255   2.767  10.722 -0.9508  1.4972 -1.0568
23349SOL    HW271489   2.234   2.746  10.573  1.3832 -1.8228 -1.0205
23350SOL     OW71490   3.258   1.492   3.032  0.1695  0.1600  0.4619
23350SOL    HW171491   3.172   1.457   3.057  0.4851  0.0757  1.4879
23350SOL    HW271492   3.255   1.584   3.056 -0.0303  0.4367 -0.5812
23351SOL     OW71493   0.661   6.100   8.113 -0.2002  0.0474 -0.5580
23351SOL    HW171494   0.715   6.069   8.185  0.3133  0.1197 -0.8997
23351SOL    HW271495   0.619   6.179   8.146 -0.0266  0.0365 -0.3098
23352SOL     OW71496   1.504   1.592  10.595  0.7040 -0.3091  0.2889
23352SOL    HW171497   1.542   1.513  10.633  0.1001 -0.4137  0.6996
23352SOL    HW271498   1.450   1.629  10.666  2.7682  1.7375  0.9051
23353SOL     OW71499   4.196   7.641   7.372  0.1749 -0.0900  0.4243
23353SOL    HW171500   4.281   7.685   7.378  0.0327  0.4071 -0.9545
23353SOL    HW271501   4.137   7.708   7.336 -0.3109 -1.0533 -0.6177
23354SOL     OW71502   3.381   5.502   3.763  0.1051 -0.2179 -0.0230
23354SOL    HW171503   3.297   5.514   3.807  0.6808 -0.5187  1.2248
23354SOL    HW271504   3.387   5.408   3.748  0.5736 -0.3202  0.7014
23355SOL     OW71505   3.941   7.631   5.129  0.3986  0.5282 -0.3766
23355SOL    HW171506   3.941   7.699   5.063 -1.6173  1.6548  0.6786
23355SOL    HW271507   3.861   7.581   5.112  0.9747 -0.5301 -0.0928
23356SOL     OW71508   0.754   7.466   9.997 -0.5559 -0.5354  0.2808
23356SOL    HW171509   0.840   7.424  10.003 -1.3870 -2.2308  0.8044
23356SOL    HW271510   0.744   7.488   9.905  0.6331  0.1247  0.2938
23357SOL     OW71511   7.447   4.092   9.737  0.4136 -0.3697 -0.1671
23357SOL    HW171512   7.376   4.055   9.789  0.5832 -1.7708 -0.8785
23357SOL    HW271513   7.472   4.173   9.783  1.4434 -2.1729  2.7125
23358SOL     OW71514   7.504   0.518   8.510 -0.1816  0.2264 -0.0698
23358SOL    HW171515   7.490   0.538   8.417  0.0402  0.5524 -0.0374
23358SOL    HW271516   7.524   0.603   8.549  1.2396 -0.1247  0.0014
23359SOL     OW71517   0.657   2.926   6.728 -0.2556  0.4652  0.0441
23359SOL    HW171518   0.678   3.019   6.726 -2.6682  1.0850 -1.1429
23359SOL    HW271519   0.720   2.885   6.669  0.5759  1.4026  0.2652
23360SOL     OW71520   6.091   2.467   9.793 -0.5508 -0.2899 -0.2706
23360SOL    HW171521   6.153   2.428   9.732 -0.2048 -1.3347  0.7180
23360SOL    HW271522   6.062   2.548   9.750  2.9980  1.3455  0.0793
23361SOL     OW71523   3.288   4.211   3.745  0.9183  0.2576  0.4339
23361SOL    HW171524   3.218   4.244   3.802 -2.2735  0.1955 -3.0029
23361SOL    HW271525   3.342   4.288   3.726  0.1975  0.9607  1.1485
23362SOL     OW71526   0.562   3.585   3.656 -0.1639  0.2918 -0.5114
23362SOL    HW171527   0.632   3.607   3.594  0.3136  0.0907 -0.0546
23362SOL    HW271528   0.530   3.499   3.626 -0.7447  0.7265 -1.1729
23363SOL     OW71529   6.226   1.902   3.802 -0.3412  0.0807 -0.0703
23363SOL    HW171530   6.220   1.870   3.712 -2.3633 -1.9428  0.6846
23363SOL    HW271531   6.274   1.833   3.848 -0.8304  0.2859  0.7491
23364SOL     OW71532   3.547   1.806   6.778 -0.2603 -0.3328 -0.4578
23364SOL    HW171533   3.584   1.844   6.698 -1.4061 -1.0372 -1.3383
23364SOL    HW271534   3.453   1.826   6.773 -0.1700  0.8952  1.4422
23365SOL     OW71535   4.351   5.561  12.257 -0.2422  0.1050 -0.4653
23365SOL    HW171536   4.430   5.611  12.281  0.0570  1.5509 -3.8750
23365SOL    HW271537   4.279   5.622  12.274 -0.4598 -0.4005  0.5215
23366SOL     OW71538   1.934   1.231   8.334 -1.3934 -0.6968 -0.2766
23366SOL    HW171539   1.993   1.307   8.343 -0.1051 -1.5732 -1.0423
23366SOL    HW271540   1.974   1.163   8.388 -1.2035 -1.5801 -1.4816
23367SOL     OW71541   5.277   3.674  12.218 -0.1483 -0.3566  0.0989
23367SOL    HW171542   5.264   3.648  12.127  1.3098 -1.0022  0.0472
23367SOL    HW271543   5.196   3.648  12.262 -0.1295 -1.8062 -0.6619
23368SOL     OW71544   3.657   4.597   9.098  0.3806 -0.3229  0.7271
23368SOL    HW171545   3.665   4.537   9.172 -0.0227 -1.6944 -0.2906
23368SOL    HW271546   3.632   4.541   9.024 -0.3879  1.1571 -0.1933
23369SOL     OW71547   5.597   1.781   6.635  0.1305 -0.1700 -0.2071
23369SOL    HW171548   5.541   1.720   6.588  0.2904  0.4445 -1.2549
23369SOL    HW271549   5.674   1.790   6.578  0.2132  0.7958  0.0375
23370SOL     OW71550   2.425   3.786  10.162  0.2848  0.0335  0.3467
23370SOL    HW171551   2.459   3.873  10.140  0.0968 -0.2436 -1.1346
23370SOL    HW271552   2.332   3.799  10.178  0.1977  0.0671 -0.1699
23371SOL     OW71553   3.132   5.350  10.244 -0.2620 -0.2024  0.1603
23371SOL    HW171554   3.073   5.413  10.200 -2.0057 -0.6224  1.7752
23371SOL    HW271555   3.217   5.393  10.243 -1.4631  2.4412  1.5586
23372SOL     OW71556   7.812   0.982   5.989 -0.2682 -0.2484  0.2165
23372SOL    HW171557   7.874   0.912   5.967  0.1808 -0.0636  0.8750
23372SOL    HW271558   7.727   0.938   5.992 -0.0776 -0.6417  0.0119
23373SOL     OW71559   1.135   1.911   9.563  0.2061  0.1356 -0.1908
23373SOL    HW171560   1.230   1.898   9.558  0.3398  1.5311 -2.3554
23373SOL    HW271561   1.124   2.006   9.569 -1.0695  0.0667 -1.0028
23374SOL     OW71562   2.966   6.081   2.935  0.9588 -0.0249 -0.4108
23374SOL    HW171563   2.940   6.054   2.847  0.5852 -1.6152  0.1649
23374SOL    HW271564   3.024   6.156   2.921 -2.2753  2.4914 -1.8472
23375SOL     OW71565   4.782   1.706   5.216  0.1528 -0.0704 -0.2838
23375SOL    HW171566   4.713   1.648   5.251  0.7195 -1.3535 -1.1945
23375SOL    HW271567   4.856   1.694   5.276 -0.7200  2.1912  1.3706
23376SOL     OW71568   5.596   1.673   4.894  0.1456  0.4222  0.3468
23376SOL    HW171569   5.652   1.739   4.853  0.9575  0.7505  1.8845
23376SOL    HW271570   5.567   1.715   4.976  0.4312 -0.9898  1.1980
23377SOL     OW71571   1.674   7.468   2.372  0.9281 -0.6735 -0.6139
23377SOL    HW171572   1.730   7.391   2.368  1.8310 -0.0117 -0.9201
23377SOL    HW271573   1.643   7.480   2.282  1.6884 -0.0348 -0.7997
23378SOL     OW71574   3.073   6.989  12.298  0.4629  0.5154 -0.1520
23378SOL    HW171575   3.017   7.066  12.302  2.0805  1.7201  3.8168
23378SOL    HW271576   3.070   6.952  12.386  2.2412 -2.1175 -1.0823
23379SOL     OW71577   5.040   6.289   9.862  1.1037 -0.1934 -0.3653
23379SOL    HW171578   4.949   6.273   9.888  0.8381 -1.3749 -1.8931
23379SOL    HW271579   5.037   6.368   9.809  0.9187 -0.3557 -0.6006
23380SOL     OW71580   1.237   7.297  11.118  0.3220 -0.1824 -0.1026
23380SOL    HW171581   1.300   7.363  11.148 -1.2876  0.3439  2.4987
23380SOL    HW271582   1.269   7.270  11.032  1.6033  3.2691 -0.8830
23381SOL     OW71583   6.186   0.089   6.314  0.4110 -0.0557 -0.2314
23381SOL    HW171584   6.210  -0.001   6.334 -0.0503  0.1814  1.5809
23381SOL    HW271585   6.096   0.085   6.285 -0.3535 -0.0188  1.9294
23382SOL     OW71586   4.647   0.675   7.433  0.7023  0.4469 -0.0709
23382SOL    HW171587   4.592   0.601   7.404  2.1236 -0.1926 -1.2419
23382SOL    HW271588   4.593   0.752   7.417  0.0613 -0.1726 -1.0155
23383SOL     OW71589   3.090   7.856   3.842 -0.0402 -0.2989 -0.0247
23383SOL    HW171590   3.018   7.910   3.875  1.0476  1.2022  0.0043
23383SOL    HW271591   3.169   7.895   3.881  0.9230 -0.9714 -1.2320
23384SOL     OW71592   6.876   4.262   8.971  0.4556 -0.0330 -0.3581
23384SOL    HW171593   6.898   4.241   8.880  1.3087  1.0730 -0.4318
23384SOL    HW271594   6.783   4.240   8.979 -0.5285  2.8079 -2.4474
23385SOL     OW71595   6.252   7.948   7.626  0.2112  0.7246 -0.4537
23385SOL    HW171596   6.334   7.924   7.584  0.3728  0.1545  0.1666
23385SOL    HW271597   6.257   8.043   7.637  1.3573  0.5588  0.7158
23386SOL     OW71598   0.557   0.295   2.606  0.2877 -0.3758 -0.7773
23386SOL    HW171599   0.629   0.301   2.543  0.4826 -0.1477 -0.5312
23386SOL    HW271600   0.513   0.380   2.601  0.3936 -0.3043 -0.4944
23387SOL     OW71601   5.310   5.142   4.955 -0.2071  0.3350 -0.4482
23387SOL    HW171602   5.354   5.148   5.040 -0.5184  1.7893 -0.3681
23387SOL    HW271603   5.217   5.152   4.976 -0.3572 -0.1180 -0.8833
23388SOL     OW71604   0.982   1.262   4.812 -0.8670 -0.1537 -0.7650
23388SOL    HW171605   0.967   1.356   4.814 -1.2751 -0.1823  2.1348
23388SOL    HW271606   0.948   1.231   4.896 -1.6919 -3.0564 -2.0599
23389SOL     OW71607   2.020   7.102  12.097  0.0180 -0.5458 -0.6871
23389SOL    HW171608   1.945   7.047  12.072  0.2303 -0.9286 -0.4832
23389SOL    HW271609   2.055   7.061  12.176 -0.4035  0.4242  0.0257
23390SOL     OW71610   7.204   0.055   6.866 -0.3978  0.1346 -0.5191
23390SOL    HW171611   7.179  -0.018   6.809  0.0219 -1.0880  0.7970
23390SOL    HW271612   7.243   0.013   6.943 -0.8327  1.7189  0.6188
23391SOL     OW71613   4.694   7.172   6.370 -0.4100 -0.2546 -0.3772
23391SOL    HW171614   4.608   7.144   6.338 -1.1202  0.4812  0.8427
23391SOL    HW271615   4.675   7.227   6.446  1.0742  1.2706 -1.0544
23392SOL     OW71616   3.318   6.382   2.917  0.0731  0.9435  0.2592
23392SOL    HW171617   3.383   6.327   2.875  0.2970  1.9212 -0.7181
23392SOL    HW271618   3.234   6.344   2.891  0.1899  1.8730 -1.6160
23393SOL     OW71619   5.540   5.694   7.338 -0.0308  0.0570  0.2713
23393SOL    HW171620   5.535   5.787   7.318 -0.4837 -0.2369 -1.0690
23393SOL    HW271621   5.540   5.690   7.433  2.0938  1.5323  0.3989
23394SOL     OW71622   1.003   4.371   0.650  0.7011 -0.3000 -0.3703
23394SOL    HW171623   0.964   4.406   0.569 -0.3428 -1.1328 -0.2502
23394SOL    HW271624   0.970   4.281   0.656  0.4361 -0.1318  1.1858
23395SOL     OW71625   5.171   0.864   6.449 -0.5597 -0.2013  0.0890
23395SOL    HW171626   5.094   0.806   6.447 -0.5436 -0.4229  2.6013
23395SOL    HW271627   5.238   0.813   6.495 -0.3986  1.5550  1.9725
23396SOL     OW71628   5.596   1.415   6.051 -0.1091  0.0669 -0.1965
23396SOL    HW171629   5.641   1.492   6.017 -0.9115 -0.2684 -2.1603
23396SOL    HW271630   5.506   1.444   6.064 -0.6070 -0.7181 -1.7360
23397SOL     OW71631   6.225   3.128  10.358  0.0688 -0.1583 -0.4041
23397SOL    HW171632   6.270   3.059  10.310 -0.2530 -0.5267 -0.1792
23397SOL    HW271633   6.237   3.206  10.304  0.0816 -0.4758 -0.8643
23398SOL     OW71634   2.194   0.931  10.292 -0.2993 -0.2623 -0.1860
23398SOL    HW171635   2.179   0.854  10.237 -1.5295  0.3988 -0.8243
23398SOL    HW271636   2.115   0.984  10.281  1.3937  2.1989 -1.5856
23399SOL     OW71637   3.770   4.403   9.947 -0.4232 -0.8039  0.3696
23399SOL    HW171638   3.759   4.347   9.870 -0.2772  0.7087 -0.8247
23399SOL    HW271639   3.713   4.365  10.013 -0.1101 -2.4961 -0.2847
23400SOL     OW71640   6.975   7.558   5.405 -0.7543 -0.3819  0.1947
23400SOL    HW171641   6.980   7.551   5.501 -0.5095  0.7828  0.2892
23400SOL    HW271642   6.978   7.468   5.374 -0.3336 -0.7554  1.2695
23401SOL     OW71643   2.325   4.676   0.798 -0.1478  0.0465  0.3357
23401SOL    HW171644   2.275   4.758   0.788  1.2623  1.0792  1.3938
23401SOL    HW271645   2.415   4.701   0.777  0.3065 -1.2447  0.7000
23402SOL     OW71646   6.504   6.692   4.888  0.3390  0.2552  0.2026
23402SOL    HW171647   6.504   6.787   4.889  1.3650  0.2800  1.6114
23402SOL    HW271648   6.435   6.668   4.826  0.8678  1.9013 -1.0727
23403SOL     OW71649   2.337   7.021  11.852 -0.0152 -0.3972  0.6157
23403SOL    HW171650   2.406   6.975  11.900  0.1770  1.1535  1.8831
23403SOL    HW271651   2.383   7.089  11.803 -0.6458  1.1021  2.0101
23404SOL     OW71652   5.893   1.684   0.942 -0.3331  0.1961  0.8142
23404SOL    HW171653   5.926   1.660   0.855 -0.9906  1.0066  0.3171
23404SOL    HW271654   5.952   1.641   1.003  0.0796 -0.4801 -0.0369
23405SOL     OW71655   6.230   7.960   1.785  0.0449 -0.1507  0.3971
23405SOL    HW171656   6.157   7.899   1.798  0.7749 -0.6185  2.8125
23405SOL    HW271657   6.196   8.045   1.813 -0.4658  0.3153 -1.4454
23406SOL     OW71658   3.595   4.456   3.446  0.3416  0.3760 -0.1748
23406SOL    HW171659   3.592   4.526   3.380  0.1909  1.3464  0.8343
23406SOL    HW271660   3.672   4.476   3.499 -1.4790  1.7277  2.1553
23407SOL     OW71661   6.952   4.753   8.878  0.1543 -0.2335  0.6109
23407SOL    HW171662   6.980   4.844   8.868  1.6992 -0.6383  1.0673
23407SOL    HW271663   6.940   4.723   8.788  2.4153 -0.3730  0.2896
23408SOL     OW71664   6.373   5.479  12.376  0.0121 -0.3812 -0.4706
23408SOL    HW171665   6.386   5.385  12.363 -1.7046 -0.9845  1.7167
23408SOL    HW271666   6.330   5.508  12.295  0.1840 -1.5412 -1.0022
23409SOL     OW71667   2.571   4.392   3.944 -0.0855 -0.2530  0.1102
23409SOL    HW171668   2.495   4.353   3.900 -0.4383  0.0101  0.4753
23409SOL    HW271669   2.631   4.319   3.956  0.1404 -0.2652 -1.0618
23410SOL     OW71670   6.788   1.466   3.075  0.6594 -0.2637  0.2529
23410SOL    HW171671   6.851   1.416   3.127  1.7995  1.8694  0.9953
23410SOL    HW271672   6.709   1.469   3.130  1.0586 -0.0291  0.8123
23411SOL     OW71673   4.002   4.143   5.281  0.5657 -0.1182  0.3267
23411SOL    HW171674   4.013   4.212   5.346 -0.0759  0.4823 -0.1830
23411SOL    HW271675   3.911   4.115   5.290  0.2115  0.5566 -0.8510
23412SOL     OW71676   4.593   2.302   4.765 -0.0428 -0.4284 -0.1949
23412SOL    HW171677   4.577   2.327   4.856  0.3958  0.1014 -0.2573
23412SOL    HW271678   4.672   2.351   4.740 -0.3827 -0.2696 -0.9814
23413SOL     OW71679   6.678   2.039   6.372 -0.0083  0.3506 -0.5127
23413SOL    HW171680   6.680   2.105   6.442 -0.5595  0.5028 -0.6339
23413SOL    HW271681   6.742   1.974   6.399 -1.5809 -0.6071  1.1730
23414SOL     OW71682   0.354   3.395   6.947  0.4513 -0.2921 -0.7025
23414SOL    HW171683   0.432   3.436   6.984  0.9427  0.4648 -2.4677
23414SOL    HW271684   0.384   3.309   6.917  0.8447  0.3027 -2.0934
23415SOL     OW71685   7.626   5.486   9.049 -0.1014  0.2701 -0.1667
23415SOL    HW171686   7.530   5.484   9.052 -0.0831 -1.4463  0.3829
23415SOL    HW271687   7.651   5.400   9.017  1.2813  0.2994  0.7325
23416SOL     OW71688   0.304   4.164   4.897 -0.0833 -0.1234 -0.4808
23416SOL    HW171689   0.316   4.227   4.826 -1.2171 -1.0303 -1.5322
23416SOL    HW271690   0.370   4.096   4.880 -0.4907 -0.4451 -0.8140
23417SOL     OW71691   3.811   2.900   0.564 -0.2125 -0.1394  0.3724
23417SOL    HW171692   3.775   2.857   0.487 -3.1630  0.5079  1.2396
23417SOL    HW271693   3.789   2.841   0.637  0.9975  0.0698  0.9332
23418SOL     OW71694   3.110   5.078  10.329 -0.5387  0.0723 -0.0500
23418SOL    HW171695   3.199   5.057  10.357 -0.9066 -1.4288  0.0534
23418SOL    HW271696   3.120   5.158  10.277  0.8156  0.1287  0.2512
23419SOL     OW71697   7.017   7.163  11.120 -0.1583 -0.2020  0.4268
23419SOL    HW171698   7.103   7.167  11.078 -1.1962  1.1291 -1.8048
23419SOL    HW271699   7.002   7.070  11.137  1.5399 -0.4850  0.4870
23420SOL     OW71700   0.757   7.124   0.435 -0.2549 -0.0966  0.3158
23420SOL    HW171701   0.747   7.073   0.355 -0.6919  0.9178 -0.2980
23420SOL    HW271702   0.844   7.164   0.427  0.1239 -0.7997  0.8371
23421SOL     OW71703   4.881   7.024   4.615  0.1359  0.0842  0.0385
23421SOL    HW171704   4.926   6.977   4.685  0.1883 -0.1628 -0.1577
23421SOL    HW271705   4.943   7.091   4.587 -1.0586  2.3497  2.3916
23422SOL     OW71706   5.273   1.537   5.572 -0.1633  0.2513  0.1011
23422SOL    HW171707   5.182   1.527   5.599 -0.4796  1.3035 -0.5178
23422SOL    HW271708   5.296   1.626   5.600 -0.1325  0.9481 -1.9455
23423SOL     OW71709   2.764   4.156   0.955  0.0418  0.0987  0.4202
23423SOL    HW171710   2.805   4.198   0.880 -1.9474  1.5446  0.0761
23423SOL    HW271711   2.755   4.064   0.930  0.1664  0.3989 -0.7662
23424SOL     OW71712   5.223   1.381  10.422 -0.3873  0.2446  0.0297
23424SOL    HW171713   5.196   1.459  10.471 -1.1629  0.1995 -0.3087
23424SOL    HW271714   5.314   1.399  10.397 -0.3624  0.7736  0.4798
23425SOL     OW71715   2.829   2.923   6.745  0.1352  0.1439  0.5197
23425SOL    HW171716   2.784   2.852   6.790  0.1116 -2.2324 -2.8914
23425SOL    HW271717   2.783   2.933   6.662  1.7037  2.4552 -0.1926
23426SOL     OW71718   1.831   1.865   3.709  0.5298 -0.2769  0.0580
23426SOL    HW171719   1.852   1.774   3.690  1.8181  0.1258 -0.5081
23426SOL    HW271720   1.735   1.865   3.721  0.2398 -1.3484 -1.8734
23427SOL     OW71721   7.574   1.440   5.549 -0.0646 -0.2489 -0.0698
23427SOL    HW171722   7.491   1.482   5.571 -1.0715 -1.5542 -1.2257
23427SOL    HW271723   7.635   1.473   5.615 -0.9941  2.2618 -0.3260
23428SOL     OW71724   4.311   3.698   5.690  0.1144  0.1358 -0.1630
23428SOL    HW171725   4.278   3.780   5.655  1.0599  0.2819 -0.7270
23428SOL    HW271726   4.240   3.635   5.674  0.3655  0.2815 -1.9956
23429SOL     OW71727   0.554   4.273   2.548 -0.1736  0.0856 -0.4126
23429SOL    HW171728   0.471   4.241   2.511 -0.0404 -0.5573 -0.1703
23429SOL    HW271729   0.541   4.367   2.559  0.2165  0.5504 -3.2467
23430SOL     OW71730   3.530   5.278  10.583  0.4779  0.6263 -0.2231
23430SOL    HW171731   3.490   5.237  10.507  1.7781  0.7502 -0.9943
23430SOL    HW271732   3.537   5.371  10.560 -1.4754  1.1597  1.0898
23431SOL     OW71733   2.042   7.586   4.799  0.7265 -0.1501  0.2924
23431SOL    HW171734   2.122   7.631   4.825  0.4560  0.0849  0.7245
23431SOL    HW271735   1.984   7.592   4.875 -0.2736  1.0026 -0.5146
23432SOL     OW71736   7.175   4.265  11.218  0.3271 -0.0599  0.2246
23432SOL    HW171737   7.199   4.175  11.196  1.5639  0.2156  0.3689
23432SOL    HW271738   7.246   4.295  11.276  1.0052  1.6452 -1.4084
23433SOL     OW71739   2.776   0.094   4.539 -0.7042 -0.2496  0.2299
23433SOL    HW171740   2.716   0.120   4.469  0.1247 -0.0287 -0.4148
23433SOL    HW271741   2.857   0.068   4.494 -0.1543 -0.1216  1.1018
23434SOL     OW71742   6.116   5.487   8.251 -0.0269 -0.5600  0.4008
23434SOL    HW171743   6.163   5.526   8.325 -0.2989  1.0919 -0.2491
23434SOL    HW271744   6.183   5.476   8.183 -0.1441 -0.2867  0.2401
23435SOL     OW71745   3.730   4.014   7.566  0.0556 -0.1018  0.0302
23435SOL    HW171746   3.753   4.021   7.473 -0.9254 -0.1676 -0.2301
23435SOL    HW271747   3.690   4.099   7.587 -0.6929 -0.4609  0.1017
23436SOL     OW71748   6.678   5.576   3.977 -0.1701 -0.3415 -0.2121
23436SOL    HW171749   6.724   5.624   4.046  0.5853  1.3432 -1.8234
23436SOL    HW271750   6.597   5.626   3.964 -0.3429 -0.6951 -0.5004
23437SOL     OW71751   0.786   3.864  10.601  0.8454  0.1763  0.2166
23437SOL    HW171752   0.744   3.950  10.605 -1.0893 -0.7037 -0.3251
23437SOL    HW271753   0.780   3.839  10.509 -0.3406 -1.3410  0.6761
23438SOL     OW71754   6.073   1.442   9.066  0.8181 -0.4707  0.2416
23438SOL    HW171755   6.049   1.461   9.157  0.3603 -1.5276  0.3578
23438SOL    HW271756   6.161   1.404   9.072  0.3952 -1.4737  0.3676
23439SOL     OW71757   3.689   2.695   3.877 -0.5670  0.5663  0.0381
23439SOL    HW171758   3.717   2.688   3.786 -2.9630 -1.7633 -0.6520
23439SOL    HW271759   3.747   2.635   3.925 -0.8527 -0.0691 -0.4031
23440SOL     OW71760   1.115   1.454   7.867 -0.3212 -0.4010 -0.4474
23440SOL    HW171761   1.045   1.422   7.924  0.2034 -1.5166 -0.4025
23440SOL    HW271762   1.150   1.531   7.913 -0.6010 -0.6566  0.2132
23441SOL     OW71763   3.948   6.082  11.454  0.3838  0.3729 -0.1880
23441SOL    HW171764   4.039   6.066  11.477 -0.0972 -1.5816  0.5140
23441SOL    HW271765   3.905   6.102  11.537  0.2190  1.7656 -0.5723
23442SOL     OW71766   5.732   0.542  11.149  0.3379 -0.0006  0.5780
23442SOL    HW171767   5.806   0.600  11.133 -1.4440  2.3363  0.2590
23442SOL    HW271768   5.740   0.473  11.083  1.9999  0.3833  0.3479
23443SOL     OW71769   0.406   7.582   3.285  0.4378 -0.6577 -0.4698
23443SOL    HW171770   0.318   7.599   3.252 -0.1422 -2.1926  0.1838
23443SOL    HW271771   0.425   7.492   3.258  1.2303 -0.8360  0.5993
23444SOL     OW71772   3.179   0.501   2.560 -0.2563  0.3201 -0.8873
23444SOL    HW171773   3.264   0.513   2.602 -0.0832 -0.9197 -0.8597
23444SOL    HW271774   3.117   0.497   2.633 -0.3970  1.4989 -0.9176
23445SOL     OW71775   6.283   6.688   8.135 -0.0534  0.8880 -1.0397
23445SOL    HW171776   6.320   6.617   8.189  0.0835  2.0049  0.3977
23445SOL    HW271777   6.279   6.651   8.047 -0.9389 -1.2856 -0.1780
23446SOL     OW71778   5.220   1.030  11.037  0.2844  0.2147  0.1681
23446SOL    HW171779   5.147   1.086  11.064 -0.0109  0.1540 -0.4967
23446SOL    HW271780   5.297   1.071  11.076  0.2298  1.7238 -1.2228
23447SOL     OW71781   4.134   4.776   4.966 -0.3574  0.6076  0.0738
23447SOL    HW171782   4.050   4.806   5.001 -0.1185  0.7793  0.5078
23447SOL    HW271783   4.194   4.780   5.041  0.1335  0.8697 -0.3280
23448SOL     OW71784   2.257   1.154   5.283 -0.2722  0.0128  0.2824
23448SOL    HW171785   2.205   1.220   5.235 -2.8534 -2.4742 -0.6262
23448SOL    HW271786   2.258   1.186   5.373 -4.0504 -0.0069  0.5042
23449SOL     OW71787   3.005   1.491   6.502  0.5002  0.5682  0.0065
23449SOL    HW171788   2.992   1.456   6.590  1.4379 -0.1669 -0.1280
23449SOL    HW271789   3.096   1.521   6.501  0.9575 -0.7397 -1.1245
23450SOL     OW71790   4.689   6.844   6.507 -0.1474 -0.2364 -0.0305
23450SOL    HW171791   4.594   6.833   6.517 -0.1511 -0.1902 -0.0153
23450SOL    HW271792   4.706   6.820   6.416  0.1058 -2.1984  0.4888
23451SOL     OW71793   3.471   6.138   9.919  0.3277  0.5400 -0.3171
23451SOL    HW171794   3.421   6.174   9.991 -0.5659 -0.3686 -0.4565
23451SOL    HW271795   3.555   6.184   9.922 -0.0974  1.2824  0.6157
23452SOL     OW71796   2.629   1.629   1.617  0.0731  0.5552 -0.5116
23452SOL    HW171797   2.576   1.641   1.695 -0.5409  0.2716 -0.8746
23452SOL    HW271798   2.587   1.556   1.571  0.9825  0.0891 -0.6350
23453SOL     OW71799   3.846   6.457   7.753 -0.2619  0.3858 -0.7839
23453SOL    HW171800   3.862   6.537   7.703 -0.3590 -0.7091 -2.6284
23453SOL    HW271801   3.918   6.399   7.729 -0.1779 -0.1052  0.5585
23454SOL     OW71802   1.374   6.016   9.602  0.2112  0.2110  0.0357
23454SOL    HW171803   1.314   6.039   9.673  1.9156  0.1911  1.5301
23454SOL    HW271804   1.368   5.920   9.597 -0.4496  0.2673 -0.3549
23455SOL     OW71805   4.826   3.582  10.180 -0.2268 -0.1446  0.3557
23455SOL    HW171806   4.818   3.520  10.108  0.5721 -0.0196  0.1512
23455SOL    HW271807   4.760   3.649  10.161  0.4028  0.2225 -0.6096
23456SOL     OW71808   5.300   1.838   3.032 -0.0139 -0.1894  0.9670
23456SOL    HW171809   5.320   1.752   2.993  0.1142  0.1683  0.2266
23456SOL    HW271810   5.235   1.818   3.100 -0.2610 -0.8324  0.5589
23457SOL     OW71811   3.413   5.202  10.135 -0.8540  0.1552  0.5442
23457SOL    HW171812   3.370   5.161  10.060 -0.5025  1.5744 -0.4761
23457SOL    HW271813   3.387   5.294  10.131  1.9829  1.0416  0.0344
23458SOL     OW71814   0.270   1.877   5.339  0.2139 -0.4696 -0.1760
23458SOL    HW171815   0.248   1.955   5.390  1.2859  0.7204 -1.4133
23458SOL    HW271816   0.365   1.882   5.328  0.4572 -2.5513  0.5764
23459SOL     OW71817   1.894   1.586   6.700 -0.2976  0.1287 -0.2567
23459SOL    HW171818   1.965   1.630   6.746 -0.1331  0.8709 -1.1877
23459SOL    HW271819   1.826   1.653   6.690 -0.8753 -0.3966  0.0733
23460SOL     OW71820   7.874   0.085  12.033 -0.1123  0.5579 -0.5598
23460SOL    HW171821   7.964   0.117  12.034  0.0268  0.1614 -0.0498
23460SOL    HW271822   7.854   0.065  12.124 -0.1921 -0.7802 -0.8402
23461SOL     OW71823   5.823   2.976   0.498  0.8037  0.6473  0.1492
23461SOL    HW171824   5.815   2.930   0.414 -1.2766  0.0737  0.5886
23461SOL    HW271825   5.805   2.908   0.563  0.9921  1.3901  0.9858
23462SOL     OW71826   7.209   3.935   0.103 -0.2944  0.3611 -0.1880
23462SOL    HW171827   7.289   3.882   0.101  0.6992  1.7435  1.1070
23462SOL    HW271828   7.230   4.013   0.051 -0.9415  0.5698 -0.1445
23463SOL     OW71829   3.425   0.158  11.399 -0.1285 -0.5219  0.3863
23463SOL    HW171830   3.473   0.110  11.332 -1.1442 -1.8771  0.5818
23463SOL    HW271831   3.368   0.217  11.351  0.6267  0.0069  0.1219
23464SOL     OW71832   7.269   6.635   6.659  0.2183  0.1185 -0.1771
23464SOL    HW171833   7.224   6.698   6.603  2.1178 -0.2823 -2.2772
23464SOL    HW271834   7.305   6.688   6.730 -2.2950  0.6199  0.8359
23465SOL     OW71835   1.953   1.483   3.116  0.2891  0.3420  0.5855
23465SOL    HW171836   2.024   1.494   3.180  0.0625 -1.1412  1.1191
23465SOL    HW271837   1.998   1.483   3.031  0.9362 -0.5195  0.9136
23466SOL     OW71838   5.764   1.734   2.558  0.1124  0.7165  0.0994
23466SOL    HW171839   5.745   1.765   2.646 -0.4657  1.1583 -0.1812
23466SOL    HW271840   5.687   1.683   2.533  1.7482 -2.7005  1.2882
23467SOL     OW71841   7.269   1.286   2.377  0.0019 -0.5160 -0.5838
23467SOL    HW171842   7.224   1.351   2.431  2.4422  1.7694 -1.0691
23467SOL    HW271843   7.348   1.331   2.347  1.0877 -3.2707 -2.2157
23468SOL     OW71844   6.054   3.752   4.898  0.1232 -0.0533 -0.3232
23468SOL    HW171845   6.006   3.680   4.857  1.4749 -0.3939 -1.3661
23468SOL    HW271846   6.025   3.752   4.989 -1.0639 -0.8999 -0.6846
23469SOL     OW71847   5.414   4.392   7.401  0.3571  0.3970  0.0516
23469SOL    HW171848   5.332   4.369   7.443  0.1710 -1.5132 -1.2474
23469SOL    HW271849   5.424   4.328   7.331  2.9443  0.5925  0.1515
23470SOL     OW71850   4.240   5.712   7.920  0.2241 -0.9157  0.2845
23470SOL    HW171851   4.318   5.667   7.952  0.7125 -0.2532  0.0416
23470SOL    HW271852   4.234   5.688   7.828 -0.5120 -1.8726  0.5635
23471SOL     OW71853   3.563   1.298   5.340  0.3324 -0.2496 -0.6758
23471SOL    HW171854   3.471   1.297   5.366  0.0699 -1.2511 -1.5518
23471SOL    HW271855   3.587   1.205   5.335  2.0622 -0.0402  1.7364
23472SOL     OW71856   2.227   6.652   7.945  0.1262  0.0429  0.1274
23472SOL    HW171857   2.318   6.634   7.923  0.3243 -1.6606  2.0144
23472SOL    HW271858   2.179   6.577   7.909 -0.4741  0.6599 -0.3890
23473SOL     OW71859   4.477   2.543   2.058 -0.1745  0.5229  0.4057
23473SOL    HW171860   4.382   2.534   2.043 -0.1844  0.0679  0.7257
23473SOL    HW271861   4.491   2.506   2.144  0.2840  0.7070  0.4110
23474SOL     OW71862   5.574   3.420   3.396 -0.1094  0.2810 -0.1810
23474SOL    HW171863   5.666   3.395   3.402 -0.0882  0.5251  0.5726
23474SOL    HW271864   5.570   3.477   3.319  0.4146  0.4483 -0.0931
23475SOL     OW71865   2.120   2.224   7.806  0.3099 -0.2154 -0.2593
23475SOL    HW171866   2.103   2.149   7.863 -0.2149 -0.4098 -0.6677
23475SOL    HW271867   2.125   2.299   7.866  0.7334 -0.5567  0.1378
23476SOL     OW71868   0.570   3.531   7.053  0.1902 -0.4430  0.4279
23476SOL    HW171869   0.627   3.561   7.124 -0.7175 -1.1958  1.5044
23476SOL    HW271870   0.532   3.611   7.017 -1.5765 -0.1584  2.7204
23477SOL     OW71871   3.440   5.549   1.263 -0.1196  0.1313 -0.4262
23477SOL    HW171872   3.379   5.562   1.190  0.3666  1.2225 -0.6615
23477SOL    HW271873   3.486   5.633   1.271  2.6505 -1.1836 -1.4249
23478SOL     OW71874   1.042   1.278   3.129 -0.2553 -0.3276 -0.5241
23478SOL    HW171875   0.953   1.288   3.163 -0.7244  0.4708 -1.9120
23478SOL    HW271876   1.030   1.261   3.036  1.0039 -2.0974 -0.4035
23479SOL     OW71877   2.223   6.261   3.737  0.3171 -0.7232 -1.0651
23479SOL    HW171878   2.250   6.224   3.653  2.5591  0.5911 -1.0000
23479SOL    HW271879   2.282   6.335   3.751 -0.1281 -0.7538  1.5642
23480SOL     OW71880   5.104   7.542   1.427  0.6409 -0.0983 -0.7729
23480SOL    HW171881   5.109   7.552   1.522  2.1802  2.3553 -1.0358
23480SOL    HW271882   5.141   7.456   1.410  0.1743 -0.6547  0.8470
23481SOL     OW71883   1.847   3.164   3.359  0.2691  0.0847  0.4787
23481SOL    HW171884   1.818   3.245   3.401  0.1842  1.0450 -1.3574
23481SOL    HW271885   1.804   3.164   3.274  2.9480 -0.1334 -0.9669
23482SOL     OW71886   4.417   2.193   2.224  0.4050  0.6409 -0.0539
23482SOL    HW171887   4.426   2.282   2.259  1.1725  0.2851  0.6777
23482SOL    HW271888   4.340   2.198   2.167  0.8815  1.9677 -0.6344
23483SOL     OW71889   2.992   6.292   2.199 -0.4680 -0.5919  1.0234
23483SOL    HW171890   2.911   6.263   2.241 -1.2506  0.6367  0.4362
23483SOL    HW271891   2.970   6.378   2.162  0.5307 -1.0775 -0.8259
23484SOL     OW71892   6.119   7.642   5.082 -0.3570 -0.2395 -0.3452
23484SOL    HW171893   6.046   7.699   5.108 -0.3381 -0.6244  0.5750
23484SOL    HW271894   6.087   7.553   5.099  0.3340 -0.4090  0.0759
23485SOL     OW71895   6.142   6.203   5.352 -0.2771 -0.4666  0.1369
23485SOL    HW171896   6.068   6.257   5.325 -0.2674 -0.3507  0.3450
23485SOL    HW271897   6.207   6.266   5.383 -0.6671 -0.6549  1.3908
23486SOL     OW71898   5.198   4.756   0.975 -0.0477 -0.2664 -0.2677
23486SOL    HW171899   5.291   4.733   0.974 -0.0151 -0.1324 -0.3678
23486SOL    HW271900   5.192   4.832   0.917 -0.3226 -0.6529 -0.7473
23487SOL     OW71901   6.585   6.073  11.092 -0.2749 -0.3320  0.2523
23487SOL    HW171902   6.647   6.146  11.097  0.1559 -0.7112  0.4908
23487SOL    HW271903   6.528   6.085  11.168  0.3821 -0.7626  0.8335
23488SOL     OW71904   2.877   1.573   1.997 -0.3208  0.2846  0.3463
23488SOL    HW171905   2.877   1.636   1.925 -2.7772  1.0582  0.9567
23488SOL    HW271906   2.913   1.621   2.072  3.4627 -0.8778 -0.4758
23489SOL     OW71907   6.100   0.756   0.752  0.3238 -0.1246 -0.1151
23489SOL    HW171908   6.053   0.674   0.763  1.1435 -0.6038 -0.0488
23489SOL    HW271909   6.188   0.738   0.786  0.6556  0.6370 -0.5312
23490SOL     OW71910   0.055   1.279   8.741  0.4273  0.4205  0.1213
23490SOL    HW171911   0.053   1.213   8.811  0.3996 -0.3755 -0.6107
23490SOL    HW271912   0.012   1.236   8.667 -2.7364  2.4513  0.6174
23491SOL     OW71913   5.781   0.132  11.102 -0.7179  0.3850  0.4109
23491SOL    HW171914   5.744   0.089  11.025 -0.3331 -0.6955  0.8133
23491SOL    HW271915   5.724   0.105  11.174 -0.0557 -0.0497  0.7824
23492SOL     OW71916   5.975   5.509   6.980  0.3205  0.1765 -0.5227
23492SOL    HW171917   6.059   5.554   6.991  0.7118 -0.1885 -1.8474
23492SOL    HW271918   5.969   5.492   6.886 -0.4644 -1.2961 -0.2377
23493SOL     OW71919   0.560   3.380   5.619 -0.2455  0.0658  0.2129
23493SOL    HW171920   0.511   3.442   5.565 -2.1591 -2.6046 -1.3944
23493SOL    HW271921   0.539   3.294   5.582  4.1954 -1.4747  0.7106
23494SOL     OW71922   6.651   2.262   5.439  0.1577 -0.0399  0.4142
23494SOL    HW171923   6.698   2.209   5.374 -1.3439 -1.3377  0.3056
23494SOL    HW271924   6.567   2.282   5.397  0.1227  1.1842  1.0404
23495SOL     OW71925   7.632   3.791   4.962 -0.3167 -0.2975 -0.2556
23495SOL    HW171926   7.639   3.806   4.868  3.1219  0.1570 -0.0602
23495SOL    HW271927   7.721   3.772   4.990 -1.3124 -1.0036  2.8605
23496SOL     OW71928   0.121   0.706   0.243 -0.2004 -0.0344 -0.9342
23496SOL    HW171929   0.181   0.682   0.172  0.1969  1.4627 -1.1394
23496SOL    HW271930   0.151   0.655   0.318  0.4196 -0.4020 -1.4245
23497SOL     OW71931   2.411   2.137  11.704 -0.2144  0.2691  0.1621
23497SOL    HW171932   2.376   2.061  11.751  1.2157 -1.0147 -0.7384
23497SOL    HW271933   2.405   2.112  11.612 -2.6632  2.6028 -0.4307
23498SOL     OW71934   4.633   0.296   4.978  0.1939  0.6167 -0.4660
23498SOL    HW171935   4.544   0.263   4.964 -0.1355  1.0493  0.5087
23498SOL    HW271936   4.659   0.259   5.063  1.4014 -0.4421 -1.2599
23499SOL     OW71937   0.551   3.720   7.290 -0.7276  0.4855  0.6883
23499SOL    HW171938   0.533   3.737   7.197 -1.3734 -0.4279  0.6390
23499SOL    HW271939   0.465   3.723   7.332 -0.3861  1.3738  1.3511
23500SOL     OW71940   3.152   6.987   6.535 -0.2877  0.2210  0.6460
23500SOL    HW171941   3.199   6.904   6.547 -0.1163 -0.5167 -3.5600
23500SOL    HW271942   3.074   6.963   6.484  0.5386  2.6538 -2.0733
23501SOL     OW71943   6.281   7.634   0.684  0.4179  0.5239  0.0081
23501SOL    HW171944   6.361   7.592   0.716 -1.0530 -2.5110  0.0546
23501SOL    HW271945   6.214   7.612   0.749 -1.0201  0.7381 -1.3306
23502SOL     OW71946   5.988   2.708  10.212 -0.6475  0.0879  0.5235
23502SOL    HW171947   5.914   2.648  10.209  0.1997 -0.9575 -0.3356
23502SOL    HW271948   6.000   2.735  10.121 -0.4584  0.8627  0.7725
23503SOL     OW71949   6.812   1.354  10.165  0.1973 -0.3244  0.4245
23503SOL    HW171950   6.844   1.324  10.250  0.1407 -2.0190 -0.1231
23503SOL    HW271951   6.845   1.290  10.102  1.5449  1.7083 -1.0789
23504SOL     OW71952   2.409   7.318   1.542  0.2952 -0.0869 -0.0125
23504SOL    HW171953   2.379   7.400   1.503 -1.3440 -1.1267 -1.0709
23504SOL    HW271954   2.383   7.324   1.634 -1.4918 -0.1094 -0.4668
23505SOL     OW71955   5.883   3.084   6.020 -0.1486  0.0414  0.5655
23505SOL    HW171956   5.866   3.076   5.926 -0.2610 -0.2305  0.6058
23505SOL    HW271957   5.968   3.126   6.026 -1.7366  3.6269  0.3618
23506SOL     OW71958   6.335   0.436   2.697  0.3013  0.1878 -0.3494
23506SOL    HW171959   6.299   0.380   2.766  1.9660  0.8296  1.1364
23506SOL    HW271960   6.424   0.403   2.683  0.6830  1.3105 -0.7264
23507SOL     OW71961   7.499   3.494   8.707 -0.2004  0.6688 -0.2519
23507SOL    HW171962   7.467   3.578   8.740 -0.0622  1.2950 -1.6383
23507SOL    HW271963   7.463   3.488   8.619  0.6143 -0.2764 -0.5325
23508SOL     OW71964   5.200   7.799   1.340 -0.0145 -0.2011 -0.8284
23508SOL    HW171965   5.163   7.713   1.358 -0.9489  0.0798 -1.3220
23508SOL    HW271966   5.131   7.845   1.291 -0.1804  1.3980  0.8096
23509SOL     OW71967   0.844   0.256   0.372 -0.1563  0.6260  0.1320
23509SOL    HW171968   0.790   0.197   0.425 -1.2800 -0.7588 -2.3965
23509SOL    HW271969   0.917   0.201   0.342  0.6499  1.4760  0.4861
23510SOL     OW71970   3.641   5.572   9.258  0.2733  0.0955 -0.2045
23510SOL    HW171971   3.727   5.613   9.250  1.2349 -2.0663 -2.6413
23510SOL    HW271972   3.591   5.607   9.184  0.0322 -0.6754 -0.4172
23511SOL     OW71973   1.113   6.560   7.885  0.2322 -0.4320 -0.2912
23511SOL    HW171974   1.192   6.517   7.916 -0.1660 -1.5814 -0.8050
23511SOL    HW271975   1.042   6.513   7.928 -0.2509 -0.8943 -1.5287
23512SOL     OW71976   6.818   4.818   3.560 -0.4416  0.3381  0.0000
23512SOL    HW171977   6.782   4.891   3.611 -0.5028  0.8050 -0.7085
23512SOL    HW271978   6.743   4.763   3.539 -0.3610 -0.0918  0.7612
23513SOL     OW71979   5.145   2.652   5.265 -0.1260  0.1195  0.6441
23513SOL    HW171980   5.237   2.677   5.269  0.3561 -1.2333 -0.8725
23513SOL    HW271981   5.111   2.671   5.353  1.5485  0.7796  1.1866
23514SOL     OW71982   6.131   6.550   5.103 -0.0943 -0.8298  0.6774
23514SOL    HW171983   6.046   6.551   5.060 -0.4418 -0.4612  1.3426
23514SOL    HW271984   6.149   6.642   5.122 -0.4069 -1.0335  2.1441
23515SOL     OW71985   1.846   7.414   1.812  0.4903 -0.3619  0.5319
23515SOL    HW171986   1.883   7.497   1.840  0.0516  0.0369 -0.0438
23515SOL    HW271987   1.883   7.399   1.725 -1.1923  0.3914 -0.3598
23516SOL     OW71988   5.944   1.641  12.419 -0.1431 -0.0010 -0.3568
23516SOL    HW171989   5.898   1.713  12.376  0.2833  0.4892 -0.0067
23516SOL    HW271990   5.902   1.633  12.505  0.1220  0.1452 -0.2129
23517SOL     OW71991   1.551   3.318   3.585 -0.4261 -0.2538 -0.2888
23517SOL    HW171992   1.633   3.360   3.561 -0.4007 -0.3833 -0.4189
23517SOL    HW271993   1.551   3.234   3.540 -1.4620  0.5167 -1.7931
23518SOL     OW71994   1.932   6.904  10.847 -0.1226  0.9046  0.2888
23518SOL    HW171995   2.014   6.953  10.858  0.6628 -0.3192  0.0589
23518SOL    HW271996   1.958   6.825  10.800 -1.4069  0.3606  0.4672
23519SOL     OW71997   0.754   4.686  10.410  0.0198 -0.2732 -0.0854
23519SOL    HW171998   0.761   4.649  10.498  0.8917 -0.4550 -0.2222
23519SOL    HW271999   0.794   4.772  10.417  2.4001 -1.2436 -0.8423
23520SOL     OW72000   0.355   0.692   0.513  0.2891  0.4112  0.4179
23520SOL    HW172001   0.283   0.639   0.478  0.1064  1.2245 -0.5028
23520SOL    HW272002   0.423   0.686   0.446  0.6743  0.4721  0.8066
23521SOL     OW72003   1.167   7.197   7.853  0.2051 -0.2712 -0.4828
23521SOL    HW172004   1.146   7.235   7.938  0.3208 -0.7328 -0.2429
23521SOL    HW272005   1.208   7.268   7.804  1.1505 -0.2976  0.2481
23522SOL     OW72006   1.763   4.284   4.495  0.3931 -0.1885  0.6873
23522SOL    HW172007   1.768   4.260   4.588 -0.0745 -2.3197  0.2026
23522SOL    HW272008   1.826   4.227   4.452  1.4862  1.6046 -0.2171
23523SOL     OW72009   0.240   1.454   0.516  0.3952  0.0007 -0.5885
23523SOL    HW172010   0.250   1.471   0.422  1.6751  0.1260 -0.4478
23523SOL    HW272011   0.276   1.531   0.559  2.4327 -1.1922  0.0122
23524SOL     OW72012   5.462   6.782   1.495 -0.3769 -0.1802  1.1759
23524SOL    HW172013   5.475   6.849   1.429  1.0580 -0.5612  1.0212
23524SOL    HW272014   5.368   6.778   1.509 -0.6669  0.1929 -0.5401
23525SOL     OW72015   5.811   4.183   3.518  0.0428  0.1018 -0.2822
23525SOL    HW172016   5.752   4.189   3.593  0.7441 -0.4264  0.3325
23525SOL    HW272017   5.753   4.169   3.443 -0.7379  1.5908 -0.0000
23526SOL     OW72018   4.362   7.587  12.357  0.1501  0.3409 -0.5355
23526SOL    HW172019   4.284   7.620  12.402  0.6097  0.4674  0.1886
23526SOL    HW272020   4.425   7.659  12.362  0.6429 -0.0982 -0.2579
23527SOL     OW72021   2.599   7.183  12.036  0.0191 -0.5630  0.2964
23527SOL    HW172022   2.594   7.213  11.946 -1.0133 -0.3053  0.4362
23527SOL    HW272023   2.680   7.222  12.070  0.7438 -1.1499 -0.6774
23528SOL     OW72024   0.979   4.318   0.069 -0.4200 -0.7065  0.5189
23528SOL    HW172025   0.959   4.269   0.148  1.3508 -1.2476  0.6780
23528SOL    HW272026   0.922   4.280   0.002 -1.4565 -0.6856  1.3611
23529SOL     OW72027   3.423   2.651   3.953 -0.0541  0.0477  0.3140
23529SOL    HW172028   3.486   2.699   3.900  0.0265  0.0802  0.4379
23529SOL    HW272029   3.358   2.619   3.891  1.5526 -2.3682 -0.2302
23530SOL     OW72030   2.873   5.905   5.959 -0.1133  0.0917 -0.0393
23530SOL    HW172031   2.948   5.849   5.975 -0.9615 -0.4472  2.5459
23530SOL    HW272032   2.909   5.994   5.959  0.4577 -0.0744  2.2876
23531SOL     OW72033   5.820   0.384   0.202  0.1076  0.0418  0.0543
23531SOL    HW172034   5.760   0.342   0.263  2.0198 -4.9075 -1.0446
23531SOL    HW272035   5.874   0.441   0.258 -0.6462 -1.3633  2.3675
23532SOL     OW72036   6.012   0.297   5.280 -0.4111 -0.2730  0.6478
23532SOL    HW172037   5.917   0.286   5.283 -0.3206 -1.5437 -0.2096
23532SOL    HW272038   6.041   0.278   5.370 -0.9038 -0.6084  0.7390
23533SOL     OW72039   3.772   2.744   0.805 -0.1155 -0.2634 -0.1175
23533SOL    HW172040   3.794   2.670   0.748  1.9533  0.1496  0.0717
23533SOL    HW272041   3.815   2.723   0.888  1.8341  1.8150 -0.5184
23534SOL     OW72042   2.465   4.217   1.320  0.1457 -0.7519  0.3247
23534SOL    HW172043   2.513   4.135   1.308  0.7759 -0.4307  0.6267
23534SOL    HW272044   2.507   4.259   1.395 -0.2082 -0.1748  0.2080
23535SOL     OW72045   7.221   5.577  10.933  0.2059 -0.2906 -0.2700
23535SOL    HW172046   7.301   5.537  10.969  0.9483  0.2191 -1.2903
23535SOL    HW272047   7.253   5.640  10.869 -1.0390 -0.4474 -1.0782
23536SOL     OW72048   2.849   3.465   9.981 -0.0259  0.4022  0.4182
23536SOL    HW172049   2.799   3.547   9.986 -0.5189  0.0769  0.8407
23536SOL    HW272050   2.848   3.430  10.070 -1.4983 -1.0567 -0.1245
23537SOL     OW72051   1.168   4.701   3.078  0.1412  0.2250  0.1019
23537SOL    HW172052   1.116   4.762   3.131  1.1076  0.2812  1.0294
23537SOL    HW272053   1.104   4.651   3.028 -0.7663  0.6534  0.8133
23538SOL     OW72054   6.356   6.406   4.953  0.4480  0.6073  0.0035
23538SOL    HW172055   6.270   6.430   4.988  0.6679 -0.6450  1.4739
23538SOL    HW272056   6.364   6.458   4.873 -0.2956  3.2094  1.5123
23539SOL     OW72057   3.468   1.779   5.165  0.2123 -0.1380  0.1675
23539SOL    HW172058   3.376   1.796   5.143  0.8074 -0.1477 -2.8922
23539SOL    HW272059   3.470   1.686   5.189 -0.8832  0.4338  2.7080
23540SOL     OW72060   4.326   0.210   8.809 -0.2078 -0.6775  0.2356
23540SOL    HW172061   4.330   0.278   8.741  1.5068  0.9885  1.8473
23540SOL    HW272062   4.394   0.147   8.784 -0.1282 -0.4946 -0.0146
23541SOL     OW72063   5.602   5.868   2.181  0.4559  0.3312  0.0918
23541SOL    HW172064   5.632   5.839   2.095  0.0104 -1.4838  0.5210
23541SOL    HW272065   5.681   5.905   2.222  0.9459  0.1367 -0.6591
23542SOL     OW72066   7.829   3.429  10.474  0.0047  0.4174  0.6571
23542SOL    HW172067   7.861   3.400  10.389  0.4053  1.2324  0.5158
23542SOL    HW272068   7.747   3.475  10.455  0.4769  1.2697  0.5968
23543SOL     OW72069   6.773   4.400   6.372 -0.1702 -0.5812  0.7597
23543SOL    HW172070   6.706   4.360   6.428 -0.0756 -0.5952  0.8623
23543SOL    HW272071   6.780   4.490   6.403 -2.4670  0.4336 -1.3254
23544SOL     OW72072   1.033   6.746  10.792 -0.1049 -0.8323  0.0865
23544SOL    HW172073   1.097   6.740  10.864 -0.1916 -1.8395  0.0961
23544SOL    HW272074   1.082   6.782  10.719 -0.4925  2.1977  1.1763
23545SOL     OW72075   1.016   1.686  10.043 -0.4743  0.1465  0.5747
23545SOL    HW172076   1.104   1.719  10.022 -1.1866  1.1224 -1.0759
23545SOL    HW272077   0.991   1.733  10.122  0.6561 -0.5024  1.3493
23546SOL     OW72078   3.250   4.474   6.957  0.4535  0.0078  0.0918
23546SOL    HW172079   3.271   4.555   7.003 -0.6808  0.0370  0.5966
23546SOL    HW272080   3.180   4.434   7.009  0.6516 -1.0550 -0.4198
23547SOL     OW72081   2.192   7.011  11.108  0.1399 -0.5643 -0.7342
23547SOL    HW172082   2.189   6.917  11.125  0.7819 -0.2528  1.2877
23547SOL    HW272083   2.190   7.052  11.194  1.6096  1.2265 -1.4713
23548SOL     OW72084   7.923   6.535  10.432  0.0454 -0.7307 -0.3136
23548SOL    HW172085   7.902   6.617  10.387 -1.7034  0.0761  1.8623
23548SOL    HW272086   8.007   6.552  10.475 -0.8145  0.3043  0.9841
23549SOL     OW72087   6.320   0.027   6.760  0.2939  0.0661  0.8809
23549SOL    HW172088   6.286   0.092   6.697  2.3437  0.2374 -0.1544
23549SOL    HW272089   6.311   0.069   6.845 -2.8223 -0.2807  0.8294
23550SOL     OW72090   0.210   7.505  10.016  0.5676  0.6286 -0.1567
23550SOL    HW172091   0.282   7.441  10.007  1.9575  2.0215  0.5787
23550SOL    HW272092   0.206   7.548   9.930  0.2197  0.1887 -0.3705
23551SOL     OW72093   0.337   4.296   5.260 -0.1040 -0.0069 -0.1842
23551SOL    HW172094   0.317   4.216   5.212 -0.5417 -0.2340  0.3589
23551SOL    HW272095   0.253   4.325   5.295 -0.2037  1.5467 -1.6415
23552SOL     OW72096   5.646   5.047   2.851 -0.3688 -0.1327 -0.6930
23552SOL    HW172097   5.576   5.030   2.787 -0.3094  1.7840 -1.3134
23552SOL    HW272098   5.707   5.105   2.805 -0.9749  2.3981  1.4682
23553SOL     OW72099   6.779   3.323   2.116 -0.9630  0.5183 -0.2193
23553SOL    HW172100   6.726   3.293   2.190 -1.3735 -0.1659 -0.7708
23553SOL    HW272101   6.760   3.416   2.107 -2.1254  0.2724 -0.4396
23554SOL     OW72102   6.595   6.413   5.845  0.4541  0.4018 -0.5669
23554SOL    HW172103   6.575   6.482   5.782  1.1351  0.9057 -0.2517
23554SOL    HW272104   6.667   6.449   5.898 -0.5125  0.2579  0.9165
23555SOL     OW72105   5.257   4.918   1.669  0.4158 -0.0388  0.6141
23555SOL    HW172106   5.255   4.987   1.735  0.7422  2.3882 -1.7284
23555SOL    HW272107   5.330   4.863   1.694 -1.5151 -1.3200  4.0958
23556SOL     OW72108   4.760   6.845   7.220  0.2009 -0.0417  0.5905
23556SOL    HW172109   4.801   6.931   7.213  0.4410 -0.2827 -2.8828
23556SOL    HW272110   4.832   6.785   7.241  0.3189  0.3670  1.3862
23557SOL     OW72111   0.633   3.656   4.392  0.3413  0.4463  0.8981
23557SOL    HW172112   0.553   3.703   4.371  0.5648  0.3450 -0.2673
23557SOL    HW272113   0.636   3.584   4.328  1.3880  0.5016  0.8699
23558SOL     OW72114   0.832   5.862   5.093 -0.1535 -0.1586 -0.2636
23558SOL    HW172115   0.746   5.840   5.130 -0.5818  0.4570 -0.8625
23558SOL    HW272116   0.863   5.935   5.146 -0.1531 -0.1671 -0.2522
23559SOL     OW72117   6.706   0.602   1.553 -0.9464 -0.4274  0.1836
23559SOL    HW172118   6.775   0.548   1.591 -0.0291  1.1009  0.7770
23559SOL    HW272119   6.652   0.628   1.627  0.4280  1.9586  0.4752
23560SOL     OW72120   7.483   3.023   5.747  0.0715  0.0324 -0.1433
23560SOL    HW172121   7.450   2.983   5.666  1.2833 -0.9824 -0.1670
23560SOL    HW272122   7.463   2.959   5.815  0.7711  0.0008  0.0410
23561SOL     OW72123   0.719   1.066   7.628 -0.3849  0.3831 -0.3538
23561SOL    HW172124   0.631   1.034   7.650 -0.3469 -0.0898 -0.8777
23561SOL    HW272125   0.745   1.117   7.705 -0.0138 -1.7320  1.0021
23562SOL     OW72126   2.645   3.932  12.178 -0.0454 -0.3361  0.1153
23562SOL    HW172127   2.710   3.922  12.109 -0.2591  0.1878 -0.1651
23562SOL    HW272128   2.570   3.973  12.135 -0.3227 -0.3543  0.5756
23563SOL     OW72129   3.238   4.480  12.151  0.6716 -0.4419  0.0677
23563SOL    HW172130   3.151   4.477  12.110  0.6974 -0.0305 -0.0117
23563SOL    HW272131   3.247   4.393  12.191 -0.4983  0.0811  1.5536
23564SOL     OW72132   3.691   5.695   1.938  0.2426  0.0677 -0.3109
23564SOL    HW172133   3.675   5.649   1.855  1.3078  1.7588 -1.5325
23564SOL    HW272134   3.662   5.784   1.921  0.4056  0.4242  1.1871
23565SOL     OW72135   7.937   3.103   6.777 -0.2335 -0.1750 -0.2715
23565SOL    HW172136   8.019   3.100   6.825  0.3135 -0.2699 -1.1749
23565SOL    HW272137   7.951   3.168   6.709 -1.0194  0.0310 -0.2526
23566SOL     OW72138   0.375   3.485   0.936  0.5222 -0.3251 -0.5040
23566SOL    HW172139   0.459   3.448   0.907  0.2005 -0.2236 -1.6296
23566SOL    HW272140   0.392   3.579   0.941  0.1093 -0.1177 -2.2064
23567SOL     OW72141   3.916   0.002   6.771 -0.3626 -0.0578  0.0773
23567SOL    HW172142   3.838   0.041   6.733  0.9482  2.1649 -0.5002
23567SOL    HW272143   3.898  -0.000   6.865 -2.5658 -3.1689 -0.2601
23568SOL     OW72144   7.803   2.614   9.846  0.2452  0.3717 -0.4272
23568SOL    HW172145   7.864   2.581   9.912  0.0587 -1.0351 -0.9263
23568SOL    HW272146   7.856   2.669   9.789  0.3348  1.9585  1.0880
23569SOL     OW72147   4.638   3.146   4.151  0.1163 -0.1399  0.2533
23569SOL    HW172148   4.692   3.157   4.230  0.3361  0.4125  0.0328
23569SOL    HW272149   4.548   3.163   4.180 -0.0103 -1.5128  0.7212
23570SOL     OW72150   7.887   4.712   2.817 -0.1141  0.2672  0.1170
23570SOL    HW172151   7.817   4.733   2.755 -0.4111  0.5657  0.5459
23570SOL    HW272152   7.844   4.658   2.883  0.4562 -1.0425 -0.5404
23571SOL     OW72153   3.146   0.256   9.173  0.2379  0.2220  0.2397
23571SOL    HW172154   3.073   0.273   9.113  1.8695  1.5360 -1.4845
23571SOL    HW272155   3.176   0.168   9.150  0.3998  0.4387 -0.3956
23572SOL     OW72156   7.530   7.079   4.985  0.5329 -0.5097 -0.2613
23572SOL    HW172157   7.605   7.097   5.041  0.7081  0.9553 -0.9278
23572SOL    HW272158   7.472   7.154   4.997 -0.5233 -1.2957 -0.2818
23573SOL     OW72159   6.789   0.596   6.971  0.8420 -0.3099 -0.1721
23573SOL    HW172160   6.751   0.641   7.047  0.3775  0.0807 -0.6312
23573SOL    HW272161   6.753   0.508   6.975  0.2991 -0.0946 -0.3082
23574SOL     OW72162   3.606   0.353   2.507 -0.4206 -0.2492  0.0694
23574SOL    HW172163   3.598   0.260   2.528 -0.2817  0.4494  3.9516
23574SOL    HW272164   3.538   0.396   2.559  0.2494  1.9334 -0.7216
23575SOL     OW72165   1.107   7.922   8.693  0.0870 -0.1706  0.0551
23575SOL    HW172166   1.191   7.908   8.736  1.8537 -3.8460 -3.8451
23575SOL    HW272167   1.130   7.942   8.602 -3.2428 -0.2517 -0.9341
23576SOL     OW72168   3.124   4.723   0.340 -0.0191  0.5750  0.1722
23576SOL    HW172169   3.121   4.731   0.436  0.9656 -0.6568  0.3309
23576SOL    HW272170   3.129   4.629   0.324 -0.4971  0.7549 -1.1206
23577SOL     OW72171   3.294   6.224   1.600  0.0168  0.3444  0.0262
23577SOL    HW172172   3.332   6.311   1.586  0.6937  0.1470  0.5971
23577SOL    HW272173   3.326   6.171   1.527 -0.6611  0.6429 -0.5061
23578SOL     OW72174   6.554   6.523   7.523 -0.4683  0.0173 -0.2420
23578SOL    HW172175   6.630   6.506   7.579 -1.3587 -0.8583  0.7611
23578SOL    HW272176   6.564   6.464   7.449  0.3265  0.6294 -0.6359
23579SOL     OW72177   2.039   7.153   4.885  0.0032  0.0732 -0.1156
23579SOL    HW172178   2.072   7.189   4.803 -1.6100 -0.8220 -1.2175
23579SOL    HW272179   1.999   7.228   4.930 -1.3113  0.1392 -1.3282
23580SOL     OW72180   2.453   7.652  12.329  0.5886  0.4347 -0.0390
23580SOL    HW172181   2.485   7.675  12.416  1.2660 -0.6425  0.0203
23580SOL    HW272182   2.529   7.611  12.286 -0.4082 -1.3215 -0.2451
23581SOL     OW72183   4.297   7.342  11.020  0.1648  0.1077  0.2075
23581SOL    HW172184   4.354   7.409  10.981  1.1921  0.4197  2.1281
23581SOL    HW272185   4.208   7.368  10.995  0.7374  0.3115 -1.8012
23582SOL     OW72186   4.342   4.248   6.144 -0.1772  0.1437 -0.2626
23582SOL    HW172187   4.426   4.237   6.101  1.0246 -1.6224  2.2864
23582SOL    HW272188   4.286   4.180   6.108  0.2077 -0.1088 -0.3821
23583SOL     OW72189   2.011   1.697   1.483  0.7361  0.7936 -0.2134
23583SOL    HW172190   2.079   1.723   1.421  0.4621  4.0810  0.6642
23583SOL    HW272191   1.929   1.705   1.435  0.6713  1.3609 -0.0185
23584SOL     OW72192   0.735   5.578  11.635 -0.2049  0.3531 -0.2320
23584SOL    HW172193   0.792   5.515  11.677 -0.0024  0.6014 -0.1351
23584SOL    HW272194   0.651   5.532  11.625 -0.9026  0.9332  2.2551
23585SOL     OW72195   2.457   6.742   8.656  0.5624 -0.0901 -1.1221
23585SOL    HW172196   2.433   6.813   8.716 -0.6198 -1.5826  0.2747
23585SOL    HW272197   2.545   6.716   8.683 -0.0850 -0.9796  0.3083
23586SOL     OW72198   0.617   1.313  11.326  0.0088  0.3054  0.1060
23586SOL    HW172199   0.671   1.253  11.377 -0.4847  1.7126  2.3962
23586SOL    HW272200   0.548   1.258  11.290  0.2509 -0.7141  1.1415
23587SOL     OW72201   3.329   2.591  11.590  0.1885  0.1886  0.2667
23587SOL    HW172202   3.311   2.684  11.604  1.3425  0.4444  0.0760
23587SOL    HW272203   3.297   2.573  11.502 -1.2721  0.0590  0.7776
23588SOL     OW72204   0.142   7.648  11.331  0.3465 -0.3669  0.3430
23588SOL    HW172205   0.173   7.737  11.315 -0.4532 -0.2680 -0.8310
23588SOL    HW272206   0.050   7.651  11.305  0.3408 -1.5546  0.2020
23589SOL     OW72207   5.257   4.650   5.299  0.0254 -0.2912  0.1550
23589SOL    HW172208   5.197   4.595   5.249 -0.8272  0.2077  0.5902
23589SOL    HW272209   5.344   4.617   5.278 -0.3602 -0.6086 -1.0205
23590SOL     OW72210   0.506   1.250   0.196 -0.5795 -0.3650  0.0275
23590SOL    HW172211   0.523   1.319   0.132 -0.0754 -0.4999  0.0094
23590SOL    HW272212   0.520   1.169   0.148  1.0084 -0.4752  0.5917
23591SOL     OW72213   7.788   4.826   6.672 -0.5885  0.1411 -0.2950
23591SOL    HW172214   7.780   4.884   6.748  0.6096 -1.5827  1.2228
23591SOL    HW272215   7.832   4.880   6.606 -0.7380  1.3778  0.5827
23592SOL     OW72216   4.323   1.141   8.921  0.2575 -0.4989 -0.0683
23592SOL    HW172217   4.354   1.052   8.937  0.5293 -0.4938 -0.5611
23592SOL    HW272218   4.253   1.131   8.857 -1.5146 -0.6213  1.7926
23593SOL     OW72219   5.082   6.377  11.366 -0.1257 -0.2222  0.4470
23593SOL    HW172220   5.119   6.293  11.337  1.2147  0.7208 -0.7208
23593SOL    HW272221   5.035   6.410  11.290 -1.5444 -0.3585  1.2343
23594SOL     OW72222   4.570   2.909   7.086 -0.4336 -0.3541  0.4539
23594SOL    HW172223   4.483   2.944   7.105 -0.5665  1.0332 -2.2310
23594SOL    HW272224   4.554   2.819   7.057 -1.0581 -0.0207 -0.2898
23595SOL     OW72225   2.790   5.749  11.843 -0.5917  0.1514  0.0521
23595SOL    HW172226   2.844   5.816  11.885 -0.0676  1.1382 -2.0548
23595SOL    HW272227   2.715   5.797  11.809 -0.0413 -0.2055 -1.7965
23596SOL     OW72228   0.252   4.518   6.703  0.6086 -0.4477  0.1137
23596SOL    HW172229   0.186   4.460   6.664  0.6564  0.3732 -1.2393
23596SOL    HW272230   0.335   4.485   6.669  0.6433  0.3385 -0.5850
23597SOL     OW72231   4.429   5.964  11.319  0.3034  0.0460 -0.0577
23597SOL    HW172232   4.378   5.977  11.239 -0.7188 -1.0507  0.3896
23597SOL    HW272233   4.518   5.945  11.288  0.8426  3.2602 -0.8228
23598SOL     OW72234   1.834   0.292   5.299  0.3526  0.6665 -0.5195
23598SOL    HW172235   1.882   0.371   5.323 -1.1629  1.4175  0.2418
23598SOL    HW272236   1.848   0.282   5.205 -0.5978  2.7320 -0.9482
23599SOL     OW72237   0.570   1.007   9.251 -0.2727 -0.0789 -0.0257
23599SOL    HW172238   0.493   0.973   9.296 -0.9024  0.8090 -0.4066
23599SOL    HW272239   0.614   1.061   9.317 -2.0267  2.5106 -0.7966
23600SOL     OW72240   1.061   1.673   8.746 -0.5468 -0.3050  0.3219
23600SOL    HW172241   0.969   1.653   8.763 -1.0000  0.7690 -0.6849
23600SOL    HW272242   1.092   1.599   8.693 -1.0618 -0.3009  0.0032
23601SOL     OW72243   2.721   4.832   3.079 -0.1655 -0.5872 -0.4049
23601SOL    HW172244   2.658   4.849   3.148  0.7979 -0.7993  0.5639
23601SOL    HW272245   2.723   4.737   3.070 -0.3315 -0.5587 -0.7704
23602SOL     OW72246   5.841   0.149   1.929  0.4027  0.1953  0.7184
23602SOL    HW172247   5.793   0.184   1.854  1.1195  0.8895  0.5800
23602SOL    HW272248   5.818   0.056   1.930  2.3371 -0.4310 -1.9375
23603SOL     OW72249   2.788   6.981  11.172 -0.2759  0.6293 -0.0662
23603SOL    HW172250   2.725   6.910  11.161 -0.9127  1.3759 -1.4636
23603SOL    HW272251   2.862   6.941  11.217 -0.8773 -0.7694 -0.2799
23604SOL     OW72252   6.158   6.951   7.930 -0.0532 -0.5934  0.7424
23604SOL    HW172253   6.159   7.046   7.937 -1.3958 -0.5409  0.5073
23604SOL    HW272254   6.150   6.920   8.021 -1.3556 -0.4042  0.7183
23605SOL     OW72255   6.852   5.039  11.038 -0.7906  0.1445  0.1017
23605SOL    HW172256   6.863   4.959  10.986  0.8646  0.7656 -0.5902
23605SOL    HW272257   6.920   5.033  11.105  1.0929  2.0638 -1.4800
23606SOL     OW72258   1.127   2.872   3.206 -0.6395  0.6744 -0.0487
23606SOL    HW172259   1.198   2.860   3.269 -0.4719 -0.7883 -0.4893
23606SOL    HW272260   1.073   2.941   3.245 -0.1037  0.3674  1.3062
23607SOL     OW72261   1.928   1.520   6.441  0.1858  0.0465 -0.2447
23607SOL    HW172262   1.942   1.549   6.532  1.5245  0.3991 -0.5398
23607SOL    HW272263   1.895   1.598   6.396 -0.4232 -0.1127 -0.0856
23608SOL     OW72264   1.921   2.649  12.412 -0.1290 -0.2590 -0.3808
23608SOL    HW172265   2.005   2.689  12.391 -0.3033  0.8916  0.9660
23608SOL    HW272266   1.944   2.562  12.445  0.6206  0.2872  0.6196
23609SOL     OW72267   0.168   0.110   1.229 -0.1291 -0.3927 -0.0789
23609SOL    HW172268   0.216   0.131   1.149 -0.7522  1.2165 -0.0511
23609SOL    HW272269   0.092   0.060   1.199 -1.3485  1.7526 -0.7315
23610SOL     OW72270   7.196   6.833   1.249  0.1924 -0.7043  0.4284
23610SOL    HW172271   7.261   6.802   1.312  1.8612 -1.8830 -1.6968
23610SOL    HW272272   7.170   6.754   1.200 -1.6975  0.0156  0.1874
23611SOL     OW72273   1.574   2.430   8.371 -0.3332  0.4513 -0.0226
23611SOL    HW172274   1.638   2.428   8.301  0.0317  2.4504  0.1784
23611SOL    HW272275   1.492   2.456   8.329 -1.0486 -1.9372 -0.2529
23612SOL     OW72276   6.563   4.426   7.336  0.0432  0.0749  0.8509
23612SOL    HW172277   6.563   4.438   7.431  1.7944  1.3361  0.7468
23612SOL    HW272278   6.512   4.500   7.302 -0.5350 -0.3441  0.7922
23613SOL     OW72279   0.797   3.805   8.685 -0.1038  0.4841  0.3682
23613SOL    HW172280   0.807   3.772   8.596 -0.1658 -0.8111  0.8162
23613SOL    HW272281   0.737   3.742   8.727  0.5573  0.6141  1.5493
23614SOL     OW72282   3.068   5.467   1.911  0.4334 -0.3296  0.0195
23614SOL    HW172283   3.162   5.461   1.899  0.1853 -1.2467 -1.6788
23614SOL    HW272284   3.035   5.507   1.830 -0.5969  0.5242  0.8154
23615SOL     OW72285   5.954   5.413  10.482  0.5957 -0.6792  0.9631
23615SOL    HW172286   5.963   5.377  10.571  0.6638 -0.4385  1.0535
23615SOL    HW272287   6.036   5.461  10.468  1.1931 -1.8673  0.2462
23616SOL     OW72288   2.485   4.676   1.224  0.0373  0.1359 -0.0508
23616SOL    HW172289   2.503   4.768   1.243  1.2406 -0.0348 -0.2974
23616SOL    HW272290   2.542   4.628   1.284  1.2501 -0.4190 -1.5991
23617SOL     OW72291   4.558   1.470   1.279  0.4603  0.1791 -0.2392
23617SOL    HW172292   4.550   1.469   1.375  1.4723  0.3811 -0.1329
23617SOL    HW272293   4.538   1.560   1.255  0.7657  0.2764 -0.1457
23618SOL     OW72294   0.808   3.679   7.401 -0.6302  0.2412  0.2189
23618SOL    HW172295   0.807   3.585   7.379 -1.2819  0.1856  0.4592
23618SOL    HW272296   0.736   3.716   7.350 -0.0576  0.7133 -0.2658
23619SOL     OW72297   4.029   1.041  12.143  0.0195 -0.9574  0.1667
23619SOL    HW172298   4.083   1.103  12.093 -1.4092 -0.6119 -1.0095
23619SOL    HW272299   4.032   1.074  12.233 -0.8431  0.9666 -0.4530
23620SOL     OW72300   7.805   6.668   0.873  0.5342  0.0200  0.1611
23620SOL    HW172301   7.845   6.583   0.887 -0.2821 -0.3551  0.2951
23620SOL    HW272302   7.850   6.704   0.797  0.8264 -0.5715  0.0530
23621SOL     OW72303   5.742   1.826   6.216  0.0746  0.9515  0.4124
23621SOL    HW172304   5.748   1.883   6.139 -0.3520  0.4230 -0.0211
23621SOL    HW272305   5.650   1.799   6.220  0.4718 -0.5913 -0.0501
23622SOL     OW72306   3.534   6.448   7.701  0.3560  0.1901  0.1031
23622SOL    HW172307   3.615   6.446   7.753  1.8829  0.4782 -2.1342
23622SOL    HW272308   3.563   6.436   7.611 -2.1024  0.6003 -0.8189
23623SOL     OW72309   1.485   6.608   3.336 -0.1442  0.3054  0.0932
23623SOL    HW172310   1.393   6.594   3.361 -0.7672  0.1901 -2.0103
23623SOL    HW272311   1.494   6.703   3.333  0.4301  0.3645  2.2232
23624SOL     OW72312   1.548   3.319   3.221  0.1491  0.4292 -1.0519
23624SOL    HW172313   1.585   3.383   3.281 -1.3484 -1.0073  1.5583
23624SOL    HW272314   1.515   3.371   3.148  1.0048  2.3623 -0.1323
23625SOL     OW72315   4.464   3.047   3.810 -0.1502 -0.3996  0.2745
23625SOL    HW172316   4.486   3.137   3.788 -0.3660 -0.1628  1.0252
23625SOL    HW272317   4.372   3.038   3.787 -0.7808  0.2777  2.3692
23626SOL     OW72318   3.746   5.388   5.140  0.5757 -0.3999 -0.1045
23626SOL    HW172319   3.658   5.405   5.105  0.0313 -1.9296  0.4375
23626SOL    HW272320   3.741   5.420   5.231 -0.2823 -2.7538  0.7480
23627SOL     OW72321   0.265   3.946   4.139  0.4842  0.2273 -0.7883
23627SOL    HW172322   0.199   3.935   4.208  0.9326 -1.8323 -0.6216
23627SOL    HW272323   0.222   3.999   4.073 -0.5003  0.9349  0.3734
23628SOL     OW72324   2.527   7.125   5.598 -0.0370 -0.7379  0.3744
23628SOL    HW172325   2.591   7.147   5.666  0.0685  1.1906 -0.2902
23628SOL    HW272326   2.443   7.122   5.645  0.0890  0.1746  0.6689
23629SOL     OW72327   5.545   7.831   0.597 -0.1481 -0.0790  0.7393
23629SOL    HW172328   5.540   7.815   0.503  2.3172  3.5658 -0.2190
23629SOL    HW272329   5.608   7.767   0.629 -2.1986 -2.4496  0.3886
23630SOL     OW72330   4.171   1.431   4.076  0.0295  0.3920 -0.5454
23630SOL    HW172331   4.183   1.512   4.125  0.3952  0.7834 -1.2542
23630SOL    HW272332   4.095   1.447   4.020  0.9824  0.8195 -1.7709
23631SOL     OW72333   0.323   6.802  11.040 -0.3409  0.0287 -0.3915
23631SOL    HW172334   0.232   6.831  11.046 -0.2731  0.1528  0.0780
23631SOL    HW272335   0.335   6.743  11.114  0.3684  1.1456  0.4126
23632SOL     OW72336   1.876   4.079  11.451 -0.1828  0.4327  0.0406
23632SOL    HW172337   1.916   4.007  11.501  0.8281 -0.7827 -2.3406
23632SOL    HW272338   1.936   4.152  11.463  1.9075 -0.8078 -1.9058
23633SOL     OW72339   4.188   5.476   2.514 -0.2528 -0.0801 -0.1093
23633SOL    HW172340   4.172   5.403   2.454  0.7789  0.0059 -0.5010
23633SOL    HW272341   4.128   5.545   2.484 -1.4889 -0.8531  0.4789
23634SOL     OW72342   0.601   5.848   1.469  0.1823 -0.2619 -0.2887
23634SOL    HW172343   0.647   5.771   1.504 -1.1091 -1.0644 -0.2767
23634SOL    HW272344   0.650   5.872   1.391 -0.7707 -2.7109 -1.7783
23635SOL     OW72345   3.764   4.397   0.008 -0.1642  0.2814 -0.2191
23635SOL    HW172346   3.853   4.368  -0.009 -0.3274 -0.7620  0.5789
23635SOL    HW272347   3.772   4.489   0.030  0.7278  0.1897 -0.1170
23636SOL     OW72348   5.608   0.936  12.431  0.0801 -0.9668  0.7138
23636SOL    HW172349   5.612   0.863  12.369 -0.8061 -1.0696  0.7718
23636SOL    HW272350   5.565   0.900  12.508  3.1645 -1.4994  2.3356
23637SOL     OW72351   4.938   3.341   8.443  0.2776 -0.3449  0.4396
23637SOL    HW172352   4.953   3.386   8.360  0.9870  0.3774  0.9425
23637SOL    HW272353   4.944   3.248   8.421 -0.1633 -0.1860 -0.4199
23638SOL     OW72354   2.119   6.861  11.872  0.8438 -0.4263 -0.1950
23638SOL    HW172355   2.105   6.866  11.966  0.9082  0.1768 -0.2121
23638SOL    HW272356   2.194   6.918  11.856 -0.4103  1.1148 -0.8637
23639SOL     OW72357   1.505   4.691   9.331  0.3724  0.2029  0.4591
23639SOL    HW172358   1.537   4.776   9.303  1.7161 -0.8915 -1.5553
23639SOL    HW272359   1.440   4.667   9.265  0.1433 -0.4129  0.8996
23640SOL     OW72360   3.200   3.686  10.431 -0.1216  0.3499  0.4504
23640SOL    HW172361   3.254   3.683  10.510 -0.5783 -1.3015  0.7559
23640SOL    HW272362   3.207   3.776  10.399  2.0173  0.4345  1.0148
23641SOL     OW72363   6.925   7.676   4.896  0.0464  0.0154 -0.7722
23641SOL    HW172364   6.909   7.606   4.959  0.6200 -1.9400 -2.6720
23641SOL    HW272365   6.841   7.688   4.850 -0.5176  1.7921  0.6142
23642SOL     OW72366   3.676   7.635   6.530 -0.3808 -0.0429  0.0669
23642SOL    HW172367   3.715   7.607   6.613 -1.7098 -1.3512  0.2815
23642SOL    HW272368   3.750   7.669   6.480  0.6978 -0.5784  1.2313
23643SOL     OW72369   0.786   2.995  10.181  0.6011 -0.1404 -0.2674
23643SOL    HW172370   0.867   3.036  10.149  0.1830  1.0867  0.2124
23643SOL    HW272371   0.806   2.971  10.271  0.6033 -0.3313 -0.3179
23644SOL     OW72372   5.843   2.153   2.113 -0.9449 -0.1746  0.3308
23644SOL    HW172373   5.758   2.166   2.070 -2.1984 -0.7937  2.4386
23644SOL    HW272374   5.826   2.085   2.178  1.4665 -1.0556  0.1127
23645SOL     OW72375   7.936   7.282   5.246  0.1090 -0.3521 -0.7357
23645SOL    HW172376   7.844   7.305   5.241  0.2086  0.2410 -0.0155
23645SOL    HW272377   7.949   7.256   5.338  0.5989 -0.7010 -0.8966
23646SOL     OW72378   6.813   0.605   4.831  0.1549  0.4264 -0.4143
23646SOL    HW172379   6.780   0.694   4.820  0.3472  0.4656 -0.6974
23646SOL    HW272380   6.819   0.593   4.925 -2.4050 -0.2196 -0.2647
23647SOL     OW72381   2.820   1.339   1.555  0.1334  0.3353 -0.3155
23647SOL    HW172382   2.830   1.379   1.469  0.5218 -1.4863 -1.1480
23647SOL    HW272383   2.727   1.349   1.576 -0.3069 -0.6316 -1.6906
23648SOL     OW72384   6.549   3.146   0.905  0.1265  0.1733  0.3674
23648SOL    HW172385   6.500   3.120   0.827 -1.6439 -0.0285  1.5122
23648SOL    HW272386   6.565   3.239   0.893 -1.5613  0.5080  0.4700
23649SOL     OW72387   0.123   7.383  11.215 -0.4166 -0.2182 -0.5600
23649SOL    HW172388   0.199   7.402  11.160  1.2699 -1.8239  1.0790
23649SOL    HW272389   0.143   7.425  11.299 -1.3006 -0.7449 -0.0761
23650SOL     OW72390   0.129   7.310   2.944  0.2666  0.0080  0.5204
23650SOL    HW172391   0.069   7.282   3.013  1.0743  0.3291  1.3600
23650SOL    HW272392   0.098   7.397   2.919  0.5418  0.2830  1.1363
23651SOL     OW72393   3.776   0.017   8.292 -0.2384 -0.2101  0.0507
23651SOL    HW172394   3.835   0.060   8.355  1.9058 -1.0826 -1.2650
23651SOL    HW272395   3.742  -0.059   8.340  0.7445 -0.4287  0.4249
23652SOL     OW72396   2.205   4.933   0.791  0.5855  0.3377 -0.4893
23652SOL    HW172397   2.266   4.983   0.846  0.8704  1.7048 -1.9761
23652SOL    HW272398   2.128   4.989   0.783 -0.3642 -0.7918  0.2360
23653SOL     OW72399   4.691   1.106   9.841 -0.2142 -0.2047  0.2806
23653SOL    HW172400   4.644   1.122   9.923  0.4096  0.2799  0.5544
23653SOL    HW272401   4.655   1.023   9.809 -0.8401 -0.1351  0.7723
23654SOL     OW72402   2.488   4.587   9.385 -0.0582 -0.2456 -0.0989
23654SOL    HW172403   2.508   4.503   9.426  0.7053  0.5808  1.3188
23654SOL    HW272404   2.556   4.598   9.319 -0.1166 -0.7035 -0.2401
23655SOL     OW72405   4.051   0.120   5.104 -0.1159  0.3948  0.0622
23655SOL    HW172406   4.002   0.185   5.054  1.1196  1.1318 -0.2361
23655SOL    HW272407   4.101   0.072   5.039 -2.8813 -2.6560 -0.0402
23656SOL     OW72408   3.294   5.428   9.313 -0.0243 -0.0982  0.5197
23656SOL    HW172409   3.307   5.347   9.264 -0.2949  0.3385 -0.2885
23656SOL    HW272410   3.259   5.400   9.397  0.2361 -0.8446  0.3825
23657SOL     OW72411   6.107   5.774   7.541 -0.2382  0.5998  0.6967
23657SOL    HW172412   6.059   5.855   7.559  0.3935  0.9801  0.6786
23657SOL    HW272413   6.194   5.789   7.578  0.6548  0.8552 -1.3867
23658SOL     OW72414   6.531   1.552   6.946  0.0488  0.6039  0.1474
23658SOL    HW172415   6.491   1.638   6.942  1.2787  1.2390  0.8611
23658SOL    HW272416   6.500   1.507   6.867 -0.4305  1.7671 -0.3488
23659SOL     OW72417   5.888   4.983  10.569  0.0508  0.4372  0.2642
23659SOL    HW172418   5.880   4.894  10.604 -0.9466  0.6786  0.6785
23659SOL    HW272419   5.971   4.982  10.520  0.0026 -0.7445  0.1746
23660SOL     OW72420   1.996   7.145   0.963 -0.0346  0.0703  0.0272
23660SOL    HW172421   2.011   7.093   0.884 -0.1053  0.2092 -0.0775
23660SOL    HW272422   2.061   7.215   0.958 -0.4299  0.4176 -0.2027
23661SOL     OW72423   4.331   5.840  11.063 -0.5449  0.4785 -0.0268
23661SOL    HW172424   4.302   5.764  11.113 -0.7862  0.0896 -0.7528
23661SOL    HW272425   4.404   5.808  11.010  0.2635  1.0939  0.6839
23662SOL     OW72426   3.248   0.123  10.126 -0.7724  0.2329 -0.5958
23662SOL    HW172427   3.219   0.171  10.048 -0.7376  1.8155  0.3051
23662SOL    HW272428   3.264   0.192  10.191  2.0315 -0.7594 -0.0704
23663SOL     OW72429   5.438   2.849   1.436  0.0177 -0.9677 -0.7779
23663SOL    HW172430   5.451   2.874   1.527 -2.3386 -0.9700 -0.3756
23663SOL    HW272431   5.494   2.772   1.423  2.1678  0.3718 -0.0740
23664SOL     OW72432   2.027   6.308   8.020 -0.1773  0.0080 -0.0326
23664SOL    HW172433   1.946   6.358   8.027 -0.9240 -0.9278 -1.5392
23664SOL    HW272434   2.089   6.354   8.077 -1.1850  1.8974 -0.3942
23665SOL     OW72435   5.107   2.256   8.129 -0.0648  0.2726 -0.7126
23665SOL    HW172436   5.137   2.269   8.219 -1.0830 -1.1007 -0.1384
23665SOL    HW272437   5.060   2.173   8.131 -2.1296  1.3274 -2.0132
23666SOL     OW72438   4.997   5.249   3.298 -0.2846 -0.2485 -0.8003
23666SOL    HW172439   5.018   5.162   3.331 -0.9856 -0.5022 -0.9940
23666SOL    HW272440   5.074   5.275   3.247 -0.0777 -0.7664 -0.7587
23667SOL     OW72441   7.640   2.630   0.452 -0.6373  0.5903 -0.8329
23667SOL    HW172442   7.681   2.662   0.532  0.6458 -2.4466 -0.1347
23667SOL    HW272443   7.549   2.615   0.476 -0.5253  0.7609 -0.2830
23668SOL     OW72444   4.377   2.108   1.417 -0.0647 -0.0222 -0.7792
23668SOL    HW172445   4.435   2.166   1.369  1.1988 -0.9188 -0.3986
23668SOL    HW272446   4.436   2.048   1.463 -1.2539 -0.1562  0.6645
23669SOL     OW72447   7.804   1.204   8.543 -0.3454  0.1626  0.0126
23669SOL    HW172448   7.732   1.173   8.597 -0.5597 -0.5052 -0.6413
23669SOL    HW272449   7.778   1.184   8.454  0.4647  0.3023 -0.2654
23670SOL     OW72450   4.010   0.740   0.493  0.0785 -0.6944 -0.1477
23670SOL    HW172451   3.983   0.661   0.447  0.2245 -0.1378 -1.2285
23670SOL    HW272452   4.104   0.730   0.507  0.3106 -0.2591 -1.2603
23671SOL     OW72453   2.683   3.968   0.439  0.2106  0.6844 -0.0535
23671SOL    HW172454   2.644   3.985   0.525 -0.9692 -0.9263 -0.2270
23671SOL    HW272455   2.754   3.907   0.457 -1.0781 -0.9713 -0.3519
23672SOL     OW72456   6.025   7.471  11.433  0.0395  0.3500 -0.2149
23672SOL    HW172457   6.073   7.487  11.514  0.0188  0.2702 -0.1875
23672SOL    HW272458   5.936   7.502  11.450 -0.1689 -0.3612  0.0461
23673SOL     OW72459   6.170   5.248   8.026  0.0461 -0.4209  0.3126
23673SOL    HW172460   6.263   5.255   8.047 -0.3241  1.3419  1.6171
23673SOL    HW272461   6.137   5.184   8.088  0.1127  0.1568  0.9599
23674SOL     OW72462   1.294   1.075   0.500 -0.1974  0.2189 -0.4425
23674SOL    HW172463   1.378   1.076   0.546 -0.3487  0.8895 -0.1789
23674SOL    HW272464   1.282   1.164   0.468 -1.4678  0.5167  0.7429
23675SOL     OW72465   3.032   5.557   0.272 -0.2071  0.0932 -0.7548
23675SOL    HW172466   3.051   5.468   0.301  2.2153 -0.3942 -3.4299
23675SOL    HW272467   2.938   5.557   0.257 -0.2286 -2.1488 -1.0314
23676SOL     OW72468   7.883   0.995  10.349 -0.0785 -0.5018  0.4883
23676SOL    HW172469   7.924   0.957  10.427 -1.4744 -1.0047  1.0152
23676SOL    HW272470   7.868   1.087  10.371 -1.1735 -0.8123  1.1582
23677SOL     OW72471   1.854   7.376   8.230  0.1003  0.2185 -0.0481
23677SOL    HW172472   1.828   7.387   8.139  0.4715  2.7965  0.0936
23677SOL    HW272473   1.875   7.283   8.238  0.5748  0.0321 -2.7127
23678SOL     OW72474   5.019   3.704   6.745  0.9867  0.3824  0.0200
23678SOL    HW172475   5.110   3.689   6.722  0.4660 -0.0615 -1.9216
23678SOL    HW272476   4.990   3.774   6.687  0.1849  0.7662  0.8542
23679SOL     OW72477   6.901   1.328   0.192 -0.3326  0.2555 -0.2317
23679SOL    HW172478   6.824   1.279   0.165 -0.1618 -0.5165  0.6308
23679SOL    HW272479   6.967   1.261   0.210  1.1290  0.9313 -2.5844
23680SOL     OW72480   6.280   1.197   5.950  0.2441  0.1772 -0.3253
23680SOL    HW172481   6.254   1.289   5.949 -0.5943 -0.0342  0.4273
23680SOL    HW272482   6.305   1.177   5.860 -0.8255  0.7966 -0.7793
23681SOL     OW72483   7.820   6.606   6.977  0.1859  0.3010 -0.0355
23681SOL    HW172484   7.805   6.574   7.066  0.1690 -0.5201 -0.3259
23681SOL    HW272485   7.913   6.592   6.962 -0.1406 -1.3058 -0.7954
23682SOL     OW72486   2.059   5.606   2.284 -0.3496 -0.5706 -0.6927
23682SOL    HW172487   1.964   5.604   2.286 -0.5354  2.7913  1.2035
23682SOL    HW272488   2.086   5.572   2.370 -0.1982  2.6161  0.6518
23683SOL     OW72489   1.597   2.464   4.449 -0.0905 -0.3094 -0.3553
23683SOL    HW172490   1.689   2.472   4.421  0.8530  2.5550  2.9459
23683SOL    HW272491   1.594   2.381   4.496  1.7497  0.8849  2.1027
23684SOL     OW72492   0.176   6.595   1.848 -0.1460 -0.2201  0.1699
23684SOL    HW172493   0.089   6.629   1.824  0.0342 -0.3291 -0.6596
23684SOL    HW272494   0.157   6.514   1.896 -0.5081 -0.2674 -0.0462
23685SOL     OW72495   7.418   4.338  10.107 -0.4683  0.3415 -0.0828
23685SOL    HW172496   7.480   4.398  10.067 -1.6314  0.8679 -1.1421
23685SOL    HW272497   7.461   4.252  10.103  0.0554  0.6408 -1.1139
23686SOL     OW72498   1.335   1.000  10.029  0.5988  0.2058 -0.2146
23686SOL    HW172499   1.252   1.002  10.078 -0.5025  0.9005 -2.0079
23686SOL    HW272500   1.364   0.909  10.035  0.0346  0.0860  0.9630
23687SOL     OW72501   5.541   1.848   8.569 -1.0457 -0.0381 -0.7546
23687SOL    HW172502   5.591   1.924   8.600 -0.7621 -0.3872 -0.3436
23687SOL    HW272503   5.518   1.800   8.649  0.1456 -1.2306 -1.1021
23688SOL     OW72504   1.756   3.547  11.298  0.4039 -0.0300  0.1526
23688SOL    HW172505   1.754   3.595  11.215  2.9904 -0.7347 -0.4269
23688SOL    HW272506   1.846   3.515  11.304  0.3240  0.0268  3.2741
23689SOL     OW72507   2.670   1.182   4.433 -0.1502 -0.0822  0.3837
23689SOL    HW172508   2.609   1.220   4.497  2.3694  1.1462  2.2267
23689SOL    HW272509   2.674   1.247   4.363  0.8617  1.0541  1.4530
23690SOL     OW72510   2.714   2.367   3.042 -0.1421  0.2355  0.1911
23690SOL    HW172511   2.770   2.345   2.968  0.2500  2.8072 -0.3675
23690SOL    HW272512   2.754   2.322   3.116  1.0265 -0.2131 -0.6781
23691SOL     OW72513   0.991   1.239   7.112  0.1638  0.2845 -0.2460
23691SOL    HW172514   0.973   1.153   7.076  0.2408 -0.5222  1.5081
23691SOL    HW272515   0.922   1.253   7.177  0.5693  1.2311  0.0031
23692SOL     OW72516   4.642   5.494  10.176 -0.2246 -0.2762  0.6226
23692SOL    HW172517   4.680   5.444  10.248  0.4894 -0.2242  0.2828
23692SOL    HW272518   4.713   5.551  10.146 -0.6701  0.0667  0.2070
23693SOL     OW72519   5.853   5.335   6.752  0.7176 -0.5607 -0.0844
23693SOL    HW172520   5.763   5.324   6.783  0.5499 -1.2275 -0.7912
23693SOL    HW272521   5.865   5.265   6.688  1.2189  0.5017 -1.1698
23694SOL     OW72522   2.930   4.336   1.850  0.3146 -0.2589  0.1016
23694SOL    HW172523   2.945   4.341   1.755  2.3688  1.1857  0.4242
23694SOL    HW272524   2.960   4.421   1.883 -0.9318 -0.5053  2.0065
23695SOL     OW72525   3.034   4.367   4.742  0.3107  0.2524  0.0509
23695SOL    HW172526   3.028   4.278   4.779 -1.0443 -0.5943 -2.0513
23695SOL    HW272527   3.083   4.356   4.661  1.0293  1.6379  0.2663
23696SOL     OW72528   7.092   3.648  11.466  0.0110  0.1628 -0.4837
23696SOL    HW172529   7.076   3.604  11.550  0.8464  0.2803 -0.2541
23696SOL    HW272530   7.182   3.624  11.443  0.7835  2.3274  0.0202
23697SOL     OW72531   3.005   6.569   1.521 -0.2134 -0.3110 -0.0242
23697SOL    HW172532   2.924   6.545   1.566  0.2513 -0.0557  0.9759
23697SOL    HW272533   2.993   6.538   1.431 -1.2001 -0.7443  0.2468
23698SOL     OW72534   7.774   7.667  11.275  0.0558  0.0204  0.8493
23698SOL    HW172535   7.766   7.760  11.251  0.6812  0.0951  0.9155
23698SOL    HW272536   7.690   7.645  11.315 -0.9209 -0.0137 -1.1117
23699SOL     OW72537   5.621   6.717   3.393  0.1161 -1.0177 -0.7796
23699SOL    HW172538   5.662   6.803   3.385  1.5896 -1.5767  0.3362
23699SOL    HW272539   5.662   6.664   3.325 -0.5594 -0.9277 -1.2608
23700SOL     OW72540   4.476   7.952   5.184 -0.2227 -0.1010  0.2376
23700SOL    HW172541   4.556   7.916   5.223 -0.4087 -1.0300 -0.1944
23700SOL    HW272542   4.499   7.965   5.092 -0.3703  0.2417  0.2499
23701SOL     OW72543   3.628   4.565   3.030 -0.2054  0.1623  0.4124
23701SOL    HW172544   3.560   4.577   2.963 -1.3769 -2.2383  1.0699
23701SOL    HW272545   3.691   4.505   2.990  0.6367  1.0000  0.4517
23702SOL     OW72546   5.178   4.046   7.836  0.0971  0.0524  0.5806
23702SOL    HW172547   5.181   4.128   7.885  0.8312  0.4259 -0.0601
23702SOL    HW272548   5.095   4.050   7.788  1.5565  2.0343 -2.0685
23703SOL     OW72549   1.504   6.798   7.404  0.2841 -0.0114  0.7309
23703SOL    HW172550   1.471   6.863   7.466 -0.4345  0.0258  0.3191
23703SOL    HW272551   1.476   6.830   7.318  1.7225  0.2139  0.3249
23704SOL     OW72552   3.415   1.940   4.163 -0.1964 -0.7887  0.2905
23704SOL    HW172553   3.428   2.031   4.135  1.4958 -0.6588  1.3846
23704SOL    HW272554   3.349   1.947   4.233  0.4767 -0.2932  0.8902
23705SOL     OW72555   5.343   6.722  11.386 -0.4888 -0.3570  0.9043
23705SOL    HW172556   5.283   6.676  11.445  0.6626 -1.5721  1.1753
23705SOL    HW272557   5.312   6.700  11.298 -0.1725 -1.3818  1.0375
23706SOL     OW72558   0.099   1.555   8.851 -0.7882 -0.1594  0.2970
23706SOL    HW172559   0.016   1.591   8.820 -0.0943  0.9053 -0.4085
23706SOL    HW272560   0.097   1.464   8.821 -1.6837 -0.1413  0.2596
23707SOL     OW72561   2.193   0.349  10.981  0.2720  0.4410 -0.2268
23707SOL    HW172562   2.229   0.438  10.980  0.9729  0.1589 -0.8838
23707SOL    HW272563   2.240   0.303  10.911 -0.1855 -0.4071  0.0096
23708SOL     OW72564   3.789   0.494   1.259 -0.1321 -0.1347  0.6340
23708SOL    HW172565   3.884   0.492   1.248  0.0495  0.2104  1.9341
23708SOL    HW272566   3.763   0.579   1.224  0.1224  0.0019  0.7682
23709SOL     OW72567   2.211   6.166   9.714 -0.1992 -0.0579  0.5281
23709SOL    HW172568   2.259   6.249   9.718 -0.8361  0.3223  0.3766
23709SOL    HW272569   2.190   6.146   9.806 -0.1846  0.0352  0.5518
23710SOL     OW72570   2.049   4.823   2.490 -0.3816 -0.1467 -0.0608
23710SOL    HW172571   2.104   4.745   2.494 -0.3257 -0.0598  1.7964
23710SOL    HW272572   1.992   4.817   2.567  1.4370  2.8877  1.7527
23711SOL     OW72573   3.545   2.417   5.753 -0.3351 -0.0368 -0.2592
23711SOL    HW172574   3.472   2.438   5.694 -0.1399 -1.6732 -1.1402
23711SOL    HW272575   3.623   2.436   5.701 -0.1250  0.3587  0.1889
23712SOL     OW72576   0.200   5.601   3.100 -0.6084 -0.1960  0.0058
23712SOL    HW172577   0.171   5.572   3.013  0.2042 -1.6207  0.1768
23712SOL    HW272578   0.286   5.640   3.084  0.2032 -1.7702  0.3212
23713SOL     OW72579   4.254   7.107   8.575  0.4086 -0.1551 -0.0115
23713SOL    HW172580   4.237   7.054   8.653 -1.8104 -0.8162 -0.8651
23713SOL    HW272581   4.303   7.049   8.518  0.8672 -0.1382  0.3618
23714SOL     OW72582   0.144   7.586  10.831  0.0264  0.2434  0.4684
23714SOL    HW172583   0.193   7.561  10.752 -1.0940 -0.8848  0.0784
23714SOL    HW272584   0.064   7.533  10.826 -0.6954  1.1834  1.6596
23715SOL     OW72585   7.690   3.079   1.932  0.2751 -0.2318  0.1417
23715SOL    HW172586   7.619   3.035   1.885  1.0461 -0.9298 -0.3808
23715SOL    HW272587   7.670   3.062   2.025 -0.3506 -0.2464  0.0099
23716SOL     OW72588   2.056   1.801  10.286 -0.3527  0.3519  0.6135
23716SOL    HW172589   2.114   1.816  10.361  2.0435 -1.7207 -0.6524
23716SOL    HW272590   2.107   1.830  10.210 -1.7628  0.2407 -0.4163
23717SOL     OW72591   7.703   6.309   8.362  0.5204 -0.0301 -0.5930
23717SOL    HW172592   7.680   6.216   8.371  0.9866 -0.1734 -0.8548
23717SOL    HW272593   7.796   6.313   8.384  0.3545  0.4781  0.0393
23718SOL     OW72594   4.189   0.140   9.362  0.6843 -0.5182 -0.2713
23718SOL    HW172595   4.232   0.160   9.279  0.8471 -0.2739 -0.1300
23718SOL    HW272596   4.183   0.224   9.407 -0.7475 -0.3914 -0.6557
23719SOL     OW72597   0.701   3.129   4.589 -0.3861  0.4355 -0.1395
23719SOL    HW172598   0.663   3.078   4.660 -1.8163  0.7476 -0.6492
23719SOL    HW272599   0.794   3.134   4.610 -0.8185  0.8038  1.8704
23720SOL     OW72600   6.507   3.022   7.652  0.5187  0.5150 -0.3173
23720SOL    HW172601   6.507   3.116   7.670  0.6920  1.0031 -2.5861
23720SOL    HW272602   6.415   2.999   7.638  0.6156  0.6448 -1.1616
23721SOL     OW72603   3.855   6.241  10.845 -0.5923 -0.9179  0.2007
23721SOL    HW172604   3.820   6.153  10.837  0.6087 -1.3783 -0.1428
23721SOL    HW272605   3.925   6.246  10.780 -1.1798  0.5722 -0.3824
23722SOL     OW72606   3.562   6.228   9.130 -0.3695  0.3761  0.5955
23722SOL    HW172607   3.624   6.300   9.142 -0.2026  0.2941  0.2467
23722SOL    HW272608   3.601   6.155   9.177  1.3585 -0.5654 -2.0337
23723SOL     OW72609   5.181   4.919   7.751  0.2880  0.1602  0.0769
23723SOL    HW172610   5.095   4.943   7.786 -0.1905 -1.8498  0.4056
23723SOL    HW272611   5.166   4.906   7.657  0.8906  2.5123 -0.4004
23724SOL     OW72612   3.906   3.144  12.035 -0.0504 -0.2391  1.0999
23724SOL    HW172613   3.874   3.234  12.025  0.9202  0.1094  1.0093
23724SOL    HW272614   3.842   3.102  12.092 -1.0678  0.2079  0.3112
23725SOL     OW72615   0.532   3.665   9.032 -0.1492 -0.4020  0.4191
23725SOL    HW172616   0.540   3.742   9.087  0.6332 -1.1305  1.3418
23725SOL    HW272617   0.568   3.593   9.084  0.4799 -1.1418 -0.9698
23726SOL     OW72618   3.713   1.429  10.152  0.2812 -0.1931 -0.2798
23726SOL    HW172619   3.766   1.410  10.229  0.1195 -0.0970 -0.1439
23726SOL    HW272620   3.753   1.377  10.082 -0.2937 -1.2323  0.1325
23727SOL     OW72621   3.949   3.307  10.836  0.1266  0.3505 -0.3237
23727SOL    HW172622   3.915   3.390  10.870 -0.5698  0.0054 -0.1572
23727SOL    HW272623   3.879   3.244  10.854 -0.5544  0.2508 -2.9303
23728SOL     OW72624   6.199   5.865   2.795  0.7743  0.4397  0.0535
23728SOL    HW172625   6.112   5.894   2.823  1.3608  1.7043  0.6224
23728SOL    HW272626   6.237   5.942   2.752  0.7326 -0.7931 -2.3326
23729SOL     OW72627   3.066   6.872   0.124  0.1085  0.6942  0.4458
23729SOL    HW172628   2.983   6.916   0.140 -0.1028  0.6637 -0.4856
23729SOL    HW272629   3.052   6.782   0.153 -0.5052  0.4438 -0.5655
23730SOL     OW72630   5.892   4.451   8.584  0.1141 -0.0028  0.6445
23730SOL    HW172631   5.979   4.490   8.587 -0.3489  1.1350 -0.2676
23730SOL    HW272632   5.844   4.493   8.656 -0.2717  0.8660 -0.1049
23731SOL     OW72633   4.215   6.310   1.308  0.6180  0.2955  0.6930
23731SOL    HW172634   4.188   6.291   1.218  1.6761  1.5379  0.0718
23731SOL    HW272635   4.233   6.224   1.346 -1.2297 -0.3660  0.2144
23732SOL     OW72636   6.985   7.628   2.945 -0.7771 -0.1859 -0.3019
23732SOL    HW172637   7.006   7.635   2.852 -1.5744  1.4172 -0.3918
23732SOL    HW272638   7.050   7.682   2.989 -2.7726  2.4726 -0.3458
23733SOL     OW72639   2.079   0.053   2.276 -0.0458  0.1386 -0.4586
23733SOL    HW172640   2.149   0.082   2.218  0.0398  2.1667  0.5654
23733SOL    HW272641   2.116   0.060   2.364 -1.4687  1.1959  0.1027
23734SOL     OW72642   6.276   3.594   4.692 -0.1342  0.0314 -0.6332
23734SOL    HW172643   6.188   3.605   4.728  1.2370  2.8637  2.4362
23734SOL    HW272644   6.308   3.512   4.730 -0.5874  0.2747  0.2900
23735SOL     OW72645   2.395   2.887   8.500 -0.0615  0.1022  0.2619
23735SOL    HW172646   2.319   2.913   8.552 -0.4345  0.5675 -0.4925
23735SOL    HW272647   2.425   2.968   8.458  0.7496 -0.1072  0.4151
23736SOL     OW72648   1.501   6.651  10.429  0.2671 -0.1163 -0.4214
23736SOL    HW172649   1.460   6.626  10.511 -0.0536  1.9615  0.1212
23736SOL    HW272650   1.593   6.668  10.451 -0.1612  2.0745 -0.0376
23737SOL     OW72651   1.283   5.251   0.166 -0.4822  0.6819 -0.4135
23737SOL    HW172652   1.288   5.264   0.260  0.5673 -1.3718 -0.1111
23737SOL    HW272653   1.276   5.339   0.129 -0.3348  1.5561  1.5372
23738SOL     OW72654   0.689   7.658   2.620  0.4304  0.1165  1.1997
23738SOL    HW172655   0.655   7.717   2.687 -2.1768  1.0484 -0.7796
23738SOL    HW272656   0.674   7.704   2.537  2.3908 -1.4961 -0.1421
23739SOL     OW72657   6.328   2.794  10.823  0.2364  0.3037  0.2891
23739SOL    HW172658   6.244   2.754  10.845 -0.1592  0.9630  0.0096
23739SOL    HW272659   6.384   2.775  10.898  0.3774 -1.6244 -0.2503
23740SOL     OW72660   5.517   3.675  11.293  0.2184  0.1693 -0.4134
23740SOL    HW172661   5.563   3.666  11.376  0.2841 -0.7794 -0.5377
23740SOL    HW272662   5.585   3.699  11.230  1.1169 -3.4235 -1.0665
23741SOL     OW72663   4.286   1.719  11.721 -0.9572  0.0503  0.0846
23741SOL    HW172664   4.360   1.670  11.754  0.5817  1.8939 -0.4303
23741SOL    HW272665   4.214   1.656  11.718  0.3932 -1.6253  1.2292
23742SOL     OW72666   1.524   0.830  11.070 -0.8133 -0.2094  0.3746
23742SOL    HW172667   1.549   0.921  11.054 -3.2043  0.7026  1.3101
23742SOL    HW272668   1.552   0.812  11.160  1.8581 -1.3213 -0.5620
23743SOL     OW72669   5.142   7.944   8.009  0.2469  0.4457 -0.3717
23743SOL    HW172670   5.152   7.890   7.931 -2.6673 -0.7747 -0.0324
23743SOL    HW272671   5.142   7.882   8.081  3.6596  1.6199  0.8166
23744SOL     OW72672   0.108   6.033   4.948 -0.2303  0.3643 -0.2421
23744SOL    HW172673   0.025   6.079   4.956 -1.5432 -1.5797 -1.6642
23744SOL    HW272674   0.153   6.077   4.875 -0.2921  1.0145  0.1081
23745SOL     OW72675   3.964   3.259   5.671  0.5975 -0.4064 -0.5570
23745SOL    HW172676   4.008   3.184   5.710  2.3450  1.1529  0.6621
23745SOL    HW272677   3.906   3.291   5.740 -0.5455 -0.9209 -1.2567
23746SOL     OW72678   0.494   1.656  10.217  0.3477 -0.2575  0.1540
23746SOL    HW172679   0.510   1.743  10.254 -1.3880 -0.3176  1.1123
23746SOL    HW272680   0.484   1.599  10.293  2.1275 -1.4862 -0.4503
23747SOL     OW72681   5.506   5.989  12.097 -0.2102 -0.0493  0.2745
23747SOL    HW172682   5.453   5.910  12.107  0.3999 -0.3945  0.9320
23747SOL    HW272683   5.591   5.966  12.136  0.1256  0.7819  0.0689
23748SOL     OW72684   5.733   6.858   4.755 -0.3578 -0.2504  0.2136
23748SOL    HW172685   5.737   6.838   4.662  0.4716  1.1305 -0.0683
23748SOL    HW272686   5.640   6.853   4.777 -0.5741 -0.4208 -0.7148
23749SOL     OW72687   1.618   0.570  11.784 -0.0541  0.2896 -0.1834
23749SOL    HW172688   1.630   0.648  11.838  1.1489 -0.4330  0.6528
23749SOL    HW272689   1.624   0.602  11.694  1.2632  1.0518  0.1521
23750SOL     OW72690   3.029   6.956   7.415  0.3771 -0.1019 -0.4330
23750SOL    HW172691   3.099   6.908   7.371  0.2487  0.2888 -1.0652
23750SOL    HW272692   3.071   7.035   7.449  0.5108 -0.4786  0.2979
23751SOL     OW72693   4.384   4.581   5.347 -0.0197  0.2431 -0.1254
23751SOL    HW172694   4.419   4.496   5.323 -1.3594 -0.3427 -0.0384
23751SOL    HW272695   4.354   4.620   5.265 -1.7515 -0.4587  0.1510
23752SOL     OW72696   7.304   0.195   4.696 -0.0538  0.7113 -0.5584
23752SOL    HW172697   7.382   0.224   4.743 -0.7351 -0.6532  1.5709
23752SOL    HW272698   7.240   0.264   4.710 -0.4344  0.0710  1.1248
23753SOL     OW72699   5.365   0.776   0.839  0.2016 -0.1771 -0.0481
23753SOL    HW172700   5.444   0.755   0.789  0.0284  1.1705 -0.9234
23753SOL    HW272701   5.320   0.692   0.848  2.1803 -1.1606  1.3329
23754SOL     OW72702   7.579   3.709   5.703  0.1909  0.2882 -0.3442
23754SOL    HW172703   7.496   3.734   5.745  0.8203  0.0056  1.1224
23754SOL    HW272704   7.583   3.614   5.711  1.7360  0.4552  1.8204
23755SOL     OW72705   2.344   6.852   0.081 -0.0391  0.2281 -0.4797
23755SOL    HW172706   2.399   6.845   0.159 -0.3164 -2.3937 -0.4361
23755SOL    HW272707   2.255   6.859   0.114 -0.1987 -1.3336 -0.5064
23756SOL     OW72708   2.713   2.964  11.072 -0.1879 -0.6727 -0.2979
23756SOL    HW172709   2.702   3.044  11.122  2.2568 -0.6247  0.2894
23756SOL    HW272710   2.670   2.896  11.124  1.3661 -0.4346  1.3722
23757SOL     OW72711   0.896   7.562   6.201 -0.4853  0.6714 -0.8061
23757SOL    HW172712   0.883   7.481   6.152 -1.6718  1.0538 -1.1618
23757SOL    HW272713   0.811   7.577   6.244  0.4159  0.4937  1.1572
23758SOL     OW72714   2.780   7.439   3.385 -0.4925 -0.7745  0.3481
23758SOL    HW172715   2.693   7.452   3.348 -0.3014  0.0048  0.1355
23758SOL    HW272716   2.825   7.522   3.367  1.3589 -2.2172 -2.3968
23759SOL     OW72717   7.255   0.287   2.557  0.7003 -0.3270 -0.1644
23759SOL    HW172718   7.163   0.264   2.565  0.6235  0.2734  0.8867
23759SOL    HW272719   7.255   0.370   2.509  0.4747  0.9838  1.9536
23760SOL     OW72720   3.635   5.749   8.562  0.2371 -0.0514  0.4798
23760SOL    HW172721   3.607   5.658   8.574 -1.5527  0.1636 -1.5811
23760SOL    HW272722   3.617   5.790   8.647 -1.9581 -0.9184  0.5045
23761SOL     OW72723   0.228   7.653   5.378 -0.5789  0.0155  0.4294
23761SOL    HW172724   0.205   7.744   5.399 -0.0341 -0.3210  2.7519
23761SOL    HW272725   0.299   7.659   5.315 -0.0839  1.2184  1.0887
23762SOL     OW72726   3.387   7.083   6.353 -0.0345 -0.0991 -0.1725
23762SOL    HW172727   3.297   7.086   6.386  0.1856 -0.5680  0.4903
23762SOL    HW272728   3.410   7.174   6.336 -0.2050  0.1522  0.8609
23763SOL     OW72729   3.607   1.679   1.365 -0.0991 -0.2804  0.7234
23763SOL    HW172730   3.618   1.588   1.390 -0.5667 -1.1310 -1.8207
23763SOL    HW272731   3.680   1.725   1.407  1.3392 -2.1817  0.4401
23764SOL     OW72732   6.096   3.428   9.492  0.0191 -0.1411 -0.5866
23764SOL    HW172733   6.139   3.429   9.577 -1.3109  0.1670  0.1224
23764SOL    HW272734   6.140   3.360   9.443 -0.4047 -1.6464  1.0241
23765SOL     OW72735   0.848   7.060   4.105  0.2787 -0.0373  0.4794
23765SOL    HW172736   0.920   7.029   4.050  0.2158  0.7507 -0.0697
23765SOL    HW272737   0.836   6.991   4.170  2.8738  0.6581  1.8613
23766SOL     OW72738   1.556   2.666   6.071 -0.1256  0.0448  0.6890
23766SOL    HW172739   1.470   2.625   6.084 -0.3973  0.3592 -0.0420
23766SOL    HW272740   1.577   2.648   5.979  0.7237 -0.2639  0.9347
23767SOL     OW72741   5.570   0.133   5.082 -0.3037 -0.6509  0.2953
23767SOL    HW172742   5.589   0.134   4.988  0.2726  0.5916  0.3939
23767SOL    HW272743   5.503   0.200   5.093 -1.0315 -1.4275  0.6594
23768SOL     OW72744   3.618   2.324  12.165 -0.0555 -0.4482 -0.0408
23768SOL    HW172745   3.666   2.301  12.085 -0.4541 -0.8604 -0.1647
23768SOL    HW272746   3.684   2.319  12.235  0.1630 -0.6622 -0.2602
23769SOL     OW72747   0.511   7.489   8.820 -0.1131 -0.2858 -0.1726
23769SOL    HW172748   0.438   7.521   8.766 -0.5712  1.5013  1.3859
23769SOL    HW272749   0.589   7.505   8.766 -0.7062 -0.6424 -1.1773
23770SOL     OW72750   3.621   4.304   6.750  0.3990 -0.4689  0.4000
23770SOL    HW172751   3.707   4.345   6.745  1.5805 -2.6307  1.3485
23770SOL    HW272752   3.639   4.210   6.739 -1.9953 -0.8882 -0.5715
23771SOL     OW72753   1.934   0.856   9.200 -0.0002 -0.8690  0.1154
23771SOL    HW172754   2.024   0.825   9.207  0.5237  0.3361 -0.7735
23771SOL    HW272755   1.938   0.926   9.134 -1.4700 -0.3615  0.5174
23772SOL     OW72756   6.956   7.400   6.253 -0.6528  0.2006 -0.1444
23772SOL    HW172757   6.974   7.366   6.340  0.7336 -0.7784 -0.7855
23772SOL    HW272758   6.882   7.459   6.266 -1.7021 -1.3481  1.3731
23773SOL     OW72759   3.487   6.886   2.815  0.1871  0.4457  0.1309
23773SOL    HW172760   3.547   6.849   2.750 -0.3779 -2.7332  1.2304
23773SOL    HW272761   3.400   6.858   2.786 -0.1045 -0.7283  1.9573
23774SOL     OW72762   5.164   3.162   8.084  0.1321 -0.4355 -0.1118
23774SOL    HW172763   5.244   3.213   8.097  0.5801 -0.6576 -1.7309
23774SOL    HW272764   5.105   3.222   8.040  0.0903 -0.8327 -0.6054
23775SOL     OW72765   3.126   1.638   0.232 -0.3260  0.0054  0.4669
23775SOL    HW172766   3.055   1.700   0.251  0.5743  1.6687 -1.1971
23775SOL    HW272767   3.204   1.678   0.269  0.3946  0.2931 -1.2405
23776SOL     OW72768   4.960   2.360   8.806  0.0735 -0.4189  0.0043
23776SOL    HW172769   5.024   2.304   8.851  0.0120  0.6872  1.5152
23776SOL    HW272770   5.002   2.446   8.804  0.6365 -0.6502 -3.2444
23777SOL     OW72771   6.878   0.035   2.847  0.0580 -0.3902  0.0883
23777SOL    HW172772   6.862   0.044   2.753  1.7077 -1.0097 -0.2779
23777SOL    HW272773   6.801  -0.012   2.880  0.0445 -1.3048 -1.1756
23778SOL     OW72774   7.761   1.846   4.283 -0.1184 -0.5417 -0.1064
23778SOL    HW172775   7.764   1.933   4.243 -1.1486 -0.5152 -0.1620
23778SOL    HW272776   7.797   1.858   4.370 -0.3422 -0.0384 -0.0790
23779SOL     OW72777   0.393   2.564   7.864 -0.0556 -1.0268 -0.4166
23779SOL    HW172778   0.323   2.566   7.930 -1.8643 -1.8874 -2.1876
23779SOL    HW272779   0.468   2.526   7.910 -0.8555 -0.4551  1.4621
23780SOL     OW72780   7.623   3.377   2.375  0.0240 -0.0354 -0.1206
23780SOL    HW172781   7.618   3.355   2.282 -1.6326  0.6367 -0.2172
23780SOL    HW272782   7.698   3.327   2.407  1.7063  1.0303 -2.1436
23781SOL     OW72783   5.533   0.256   1.896 -0.5262  0.4597  0.1588
23781SOL    HW172784   5.539   0.307   1.977 -0.6946  1.3338 -0.3691
23781SOL    HW272785   5.613   0.278   1.848 -0.3164 -0.2328  0.1812
23782SOL     OW72786   2.962   4.161   5.352 -0.0580  0.3895 -0.0033
23782SOL    HW172787   3.025   4.118   5.294 -1.0777  0.9940 -1.6516
23782SOL    HW272788   2.993   4.143   5.440  1.0434 -1.3926 -0.7058
23783SOL     OW72789   6.629   3.470   3.046  0.3438  0.2377  0.4190
23783SOL    HW172790   6.694   3.530   3.009  2.0284 -0.9232  1.3353
23783SOL    HW272791   6.606   3.411   2.975  1.1598 -0.0280  0.3675
23784SOL     OW72792   1.151   0.641   9.418 -0.3714 -0.2630 -0.4604
23784SOL    HW172793   1.107   0.670   9.498  0.2750 -1.8288  0.5227
23784SOL    HW272794   1.087   0.584   9.375  0.1569 -1.4818  0.2981
23785SOL     OW72795   0.798   1.510  10.505  0.1894 -0.1953  0.0647
23785SOL    HW172796   0.748   1.503  10.586  0.7931 -0.9670  0.3865
23785SOL    HW272797   0.864   1.577  10.523 -1.0071  1.1929 -0.5314
23786SOL     OW72798   5.433   7.756   7.885  0.1439  0.5602  0.3431
23786SOL    HW172799   5.488   7.822   7.927  3.1625 -1.1261 -0.6337
23786SOL    HW272800   5.408   7.697   7.955 -1.7927  2.1438  1.0604
23787SOL     OW72801   5.707   5.102   2.229  0.5521  0.2058  0.0469
23787SOL    HW172802   5.666   5.075   2.311  0.7623  0.6496  0.3006
23787SOL    HW272803   5.798   5.071   2.236 -0.0330 -1.9582 -1.0710
23788SOL     OW72804   6.366   7.109   1.911 -0.0193 -0.5033 -0.0336
23788SOL    HW172805   6.418   7.109   1.831  0.6748 -2.5978  0.3279
23788SOL    HW272806   6.364   7.017   1.938 -0.8253  0.0323  1.9723
23789SOL     OW72807   3.672   5.986   1.369 -0.9646  0.3598  0.0453
23789SOL    HW172808   3.721   5.986   1.451 -1.4831  1.3488  0.3753
23789SOL    HW272809   3.737   6.005   1.302 -0.7474  0.8311  0.3824
23790SOL     OW72810   5.716   7.087   7.776 -0.8466 -0.1897  0.7861
23790SOL    HW172811   5.802   7.120   7.751 -1.6350 -0.3596 -2.7560
23790SOL    HW272812   5.716   7.088   7.872  3.0381 -0.1894  0.9384
23791SOL     OW72813   6.599   0.714   5.595  0.0354  0.7022  0.3392
23791SOL    HW172814   6.570   0.623   5.585  0.0615  0.7874 -0.5995
23791SOL    HW272815   6.662   0.711   5.666  0.2092 -0.0619  0.1642
23792SOL     OW72816   4.958   7.197  10.180 -0.2484  0.0564 -0.1735
23792SOL    HW172817   4.974   7.290  10.195 -0.4173  0.1087 -0.3263
23792SOL    HW272818   4.913   7.167  10.259 -0.5340  0.1874 -0.2846
23793SOL     OW72819   7.947   4.975   9.934  0.1148  0.1937 -0.0824
23793SOL    HW172820   7.972   4.897   9.884 -0.5198  0.0493 -0.1829
23793SOL    HW272821   8.031   5.016   9.957  0.5543 -1.4274  1.4691
23794SOL     OW72822   1.148   5.036   9.294 -0.2318 -0.6601 -0.0154
23794SOL    HW172823   1.228   5.078   9.326 -0.6599  0.5525 -0.4429
23794SOL    HW272824   1.178   4.978   9.224  0.2831 -0.2447 -0.1472
23795SOL     OW72825   0.194   7.005   1.001  0.4461 -0.4552  0.7385
23795SOL    HW172826   0.202   7.016   0.906 -1.3951  0.3188  0.6355
23795SOL    HW272827   0.102   7.025   1.020  0.5370 -1.5727  2.5619
23796SOL     OW72828   7.191   0.095  12.432 -0.1320 -0.2509 -0.3747
23796SOL    HW172829   7.264   0.141  12.473 -0.7730  0.5230 -0.0676
23796SOL    HW272830   7.128   0.082  12.503 -0.9489  0.4789 -0.9462
23797SOL     OW72831   7.690   5.158   0.990 -0.4406  0.0844 -0.3356
23797SOL    HW172832   7.756   5.203   0.936 -0.2261  0.9644  0.6254
23797SOL    HW272833   7.668   5.222   1.058  1.1793 -1.8549  2.1784
23798SOL     OW72834   3.015   2.507   9.781 -0.0100  0.0832 -0.1632
23798SOL    HW172835   3.080   2.536   9.846 -2.3405  0.0754  2.3841
23798SOL    HW272836   2.987   2.587   9.737  1.5711  0.0962 -1.2185
23799SOL     OW72837   5.383   2.920   6.693  0.0938 -0.0250  0.1661
23799SOL    HW172838   5.368   2.993   6.754  0.0844 -0.6151  0.8892
23799SOL    HW272839   5.297   2.905   6.653 -0.6100 -1.3755  2.0201
23800SOL     OW72840   0.225   0.606  12.159  0.2023  0.0717  0.1590
23800SOL    HW172841   0.257   0.690  12.124 -0.7794  0.3938  0.0034
23800SOL    HW272842   0.223   0.619  12.254  1.4139 -0.2844  0.2591
23801SOL     OW72843   7.598   0.421   9.218 -0.7416 -0.8219  0.2376
23801SOL    HW172844   7.654   0.412   9.140 -0.3039  0.5088  0.3666
23801SOL    HW272845   7.523   0.366   9.200  1.0571 -3.5274  0.5062
23802SOL     OW72846   5.382   1.436   3.080 -0.3211  0.2999 -0.4967
23802SOL    HW172847   5.451   1.494   3.046  0.4385 -0.2620  0.0716
23802SOL    HW272848   5.425   1.352   3.093 -1.0903 -0.0307 -0.0216
23803SOL     OW72849   0.699   2.013   3.921  0.3104 -0.3907 -0.1279
23803SOL    HW172850   0.762   1.942   3.908  1.9854  0.9057  0.4534
23803SOL    HW272851   0.669   2.002   4.011 -1.0949 -1.5726 -0.7000
23804SOL     OW72852   6.793   4.566   7.932  0.0920  0.2374 -0.7053
23804SOL    HW172853   6.735   4.587   7.859  0.1987  0.6337 -0.6804
23804SOL    HW272854   6.768   4.627   8.001 -1.3280 -1.3925  0.3021
23805SOL     OW72855   5.164   1.862  12.012  0.1551 -0.5149 -0.0300
23805SOL    HW172856   5.075   1.832  11.994 -0.1711  0.0414  0.6253
23805SOL    HW272857   5.214   1.835  11.935 -0.1066 -2.7731  0.5140
23806SOL     OW72858   3.281   3.741   1.066 -0.2101 -0.4419  0.2770
23806SOL    HW172859   3.304   3.787   1.148 -0.5358  0.0241  0.1114
23806SOL    HW272860   3.313   3.652   1.079  1.6417  0.1387  0.1011
23807SOL     OW72861   2.655   6.219   8.479 -0.3145  0.9740 -0.4588
23807SOL    HW172862   2.591   6.287   8.458  0.7986  2.2821  0.2948
23807SOL    HW272863   2.728   6.265   8.518  1.0596 -0.5103 -1.1497
23808SOL     OW72864   1.814   1.967   5.920  0.2437  0.3830  0.3389
23808SOL    HW172865   1.754   1.914   5.973  0.1563  0.3789  0.2375
23808SOL    HW272866   1.762   1.992   5.843  0.4472  0.1818  0.1362
23809SOL     OW72867   3.325   6.516   1.618 -0.0756 -0.1374 -0.3408
23809SOL    HW172868   3.230   6.523   1.604 -0.5002  1.0810  2.4950
23809SOL    HW272869   3.359   6.602   1.593  0.3061 -0.5514 -1.2934
23810SOL     OW72870   1.698   2.959   8.423 -0.0419 -0.0788  0.3151
23810SOL    HW172871   1.698   2.872   8.383  0.8038 -0.0499  0.2378
23810SOL    HW272872   1.729   3.017   8.354 -2.6945  0.6544 -0.3618
23811SOL     OW72873   6.910   6.060   6.057  0.1652  0.3612  0.3557
23811SOL    HW172874   6.889   5.972   6.086 -0.3514 -0.5443 -2.4741
23811SOL    HW272875   6.845   6.116   6.100 -1.0616 -0.9799  0.3181
23812SOL     OW72876   2.927   4.557   3.953  0.1415  0.2352  0.7475
23812SOL    HW172877   2.973   4.571   3.870 -1.1628  0.3905  0.0191
23812SOL    HW272878   2.964   4.623   4.013  1.6991 -0.4269  0.5746
23813SOL     OW72879   3.356   2.172   2.287 -0.1754 -0.3134 -0.0286
23813SOL    HW172880   3.377   2.236   2.219  1.3137  0.4063  1.0732
23813SOL    HW272881   3.421   2.103   2.276 -0.3043 -0.4864  0.2858
23814SOL     OW72882   5.260   7.144   5.251 -0.0096 -0.7744  0.3472
23814SOL    HW172883   5.302   7.170   5.334  3.8170  0.3096 -1.6567
23814SOL    HW272884   5.247   7.227   5.205 -2.8132 -1.2991  0.0557
23815SOL     OW72885   3.933   4.009   1.726 -0.2515  0.0522 -0.2993
23815SOL    HW172886   3.964   4.099   1.738 -0.2804 -0.0404  0.5591
23815SOL    HW272887   3.961   3.985   1.638  1.7504  0.1135  0.2747
23816SOL     OW72888   5.513   5.232   4.801 -0.3962 -0.3440  0.6076
23816SOL    HW172889   5.439   5.204   4.855 -1.0307 -1.2759 -0.6880
23816SOL    HW272890   5.580   5.166   4.817 -0.1370  0.0520  1.1677
23817SOL     OW72891   6.517   7.148   0.436  0.2836 -0.5744 -0.6051
23817SOL    HW172892   6.434   7.104   0.421 -0.5604  0.2885  1.1715
23817SOL    HW272893   6.527   7.148   0.531  2.1808 -0.3780 -0.7658
23818SOL     OW72894   5.894   6.787   1.947  0.2749  0.0264  0.4268
23818SOL    HW172895   5.903   6.866   1.894 -0.0796  0.2662  0.7239
23818SOL    HW272896   5.808   6.753   1.925 -0.3778  0.7775  1.7287
23819SOL     OW72897   6.621   2.750   6.608 -0.7601 -0.3403 -0.2617
23819SOL    HW172898   6.557   2.683   6.583 -0.5250  0.3383 -2.9324
23819SOL    HW272899   6.625   2.744   6.704 -3.9756 -1.1582 -0.0616
23820SOL     OW72900   2.078   7.096   8.552  0.1641  0.1669  0.0527
23820SOL    HW172901   1.993   7.053   8.559  0.2963  0.1064  1.5744
23820SOL    HW272902   2.062   7.186   8.579  0.3681  0.4465 -0.7529
23821SOL     OW72903   1.683   7.774   3.869 -0.2130  0.0854  0.3775
23821SOL    HW172904   1.610   7.726   3.908 -1.8249  1.0109 -1.3222
23821SOL    HW272905   1.662   7.866   3.885 -0.0797  0.4135 -1.2118
23822SOL     OW72906   7.522   5.763  12.280 -0.5183  0.3823  0.3750
23822SOL    HW172907   7.445   5.717  12.313 -0.1881  0.2378  0.9440
23822SOL    HW272908   7.537   5.724  12.194 -0.1546 -0.6860  0.9112
23823SOL     OW72909   4.923   0.021   3.459 -0.0054  0.1304  0.0924
23823SOL    HW172910   4.862   0.071   3.404 -0.3235  0.0951  0.4068
23823SOL    HW272911   4.948  -0.054   3.405 -1.5870 -0.7962  0.5647
23824SOL     OW72912   3.011   2.937   1.671  0.0919 -0.0438  0.2274
23824SOL    HW172913   3.045   2.958   1.584 -0.8637 -1.0389 -0.4067
23824SOL    HW272914   2.916   2.936   1.661 -0.0118 -1.1278  1.0380
23825SOL     OW72915   7.706   6.229   8.856 -0.0836 -0.6060 -0.0924
23825SOL    HW172916   7.799   6.208   8.860 -0.1949 -1.3030 -0.9699
23825SOL    HW272917   7.668   6.162   8.800 -0.8137  0.6886 -1.2052
23826SOL     OW72918   2.133   7.124   7.599  0.3782  0.3149 -0.6744
23826SOL    HW172919   2.186   7.203   7.599 -0.7264  1.1241 -2.5116
23826SOL    HW272920   2.177   7.065   7.660  1.5327  2.1227  0.3182
23827SOL     OW72921   4.763   4.620   3.180 -0.0982  0.1468  0.1417
23827SOL    HW172922   4.838   4.574   3.141 -0.5405  1.2212 -2.1350
23827SOL    HW272923   4.686   4.571   3.150 -0.4041  0.1393  0.9174
23828SOL     OW72924   3.833   1.081   3.329  0.1302 -0.1701  0.3841
23828SOL    HW172925   3.821   1.065   3.236  1.6714 -0.9642  0.2983
23828SOL    HW272926   3.754   1.045   3.369  0.0314 -0.9803 -0.5081
23829SOL     OW72927   4.032   4.028   5.006 -0.0872  0.0054 -0.2153
23829SOL    HW172928   4.032   3.945   5.053  0.0951 -0.1074 -0.4162
23829SOL    HW272929   4.008   4.093   5.073  0.3716 -0.1254  0.0767
23830SOL     OW72930   3.905   5.105  12.360 -0.4656  0.0886 -0.5358
23830SOL    HW172931   3.825   5.073  12.402 -0.2848  0.2174 -0.0833
23830SOL    HW272932   3.972   5.042  12.386  0.0993  1.3095  1.1558
23831SOL     OW72933   1.675   7.932   1.619  0.1346 -0.3298  0.3183
23831SOL    HW172934   1.679   7.998   1.550  2.0343  0.3227  0.9718
23831SOL    HW272935   1.587   7.895   1.613 -0.4321  1.1475 -1.0930
23832SOL     OW72936   4.290   6.568   6.584  0.3556 -0.0051 -0.0928
23832SOL    HW172937   4.338   6.485   6.575  1.5373  0.7802 -1.7339
23832SOL    HW272938   4.292   6.606   6.496 -0.1209  1.7950  0.6243
23833SOL     OW72939   6.894   2.234   0.424 -0.5364  1.0858  0.4915
23833SOL    HW172940   6.973   2.198   0.386 -1.0661  0.1245  0.2786
23833SOL    HW272941   6.921   2.320   0.458  0.4069  1.0918 -0.2327
23834SOL     OW72942   6.248   7.802   2.450  0.1022  0.5448 -0.0691
23834SOL    HW172943   6.322   7.861   2.432  1.2861 -0.3308  1.6527
23834SOL    HW272944   6.288   7.715   2.454 -1.2947 -0.1465 -0.5643
23835SOL     OW72945   3.102   0.488  10.429 -0.8336  0.4585 -0.4834
23835SOL    HW172946   3.101   0.576  10.467 -2.8602  1.8043 -3.3133
23835SOL    HW272947   3.030   0.443  10.473 -1.4052  1.0868 -0.7545
23836SOL     OW72948   2.939   7.491   2.813 -0.4639  0.5088 -0.3025
23836SOL    HW172949   2.999   7.444   2.756 -1.1230 -0.1666 -0.4596
23836SOL    HW272950   2.978   7.577   2.824 -0.5224  0.8002 -2.0988
23837SOL     OW72951   4.036   1.145   5.327  0.3368  0.3746  0.2581
23837SOL    HW172952   4.085   1.208   5.380 -0.2178  2.5094 -1.6234
23837SOL    HW272953   3.978   1.198   5.273  0.2110 -1.7184 -1.8437
23838SOL     OW72954   2.079   5.019   7.267  0.1090 -0.6763 -0.2085
23838SOL    HW172955   2.152   4.981   7.314  2.4042  0.8255 -2.2928
23838SOL    HW272956   2.062   4.957   7.195 -1.1220 -1.3023  0.5851
23839SOL     OW72957   4.966   7.476   7.048 -0.0484 -0.8270  0.0946
23839SOL    HW172958   5.018   7.397   7.036 -1.0940 -1.6201  0.6756
23839SOL    HW272959   5.021   7.532   7.103  0.7800 -1.0611 -0.4790
23840SOL     OW72960   1.298   3.081   5.301  0.0822 -0.3931 -0.5230
23840SOL    HW172961   1.223   3.066   5.243 -0.3143 -1.0238  0.1275
23840SOL    HW272962   1.371   3.037   5.257 -0.9052 -3.9383  0.9880
23841SOL     OW72963   4.800   0.893   3.191  0.1267  0.5402 -0.1490
23841SOL    HW172964   4.749   0.951   3.248  1.1525 -0.2665  1.6868
23841SOL    HW272965   4.863   0.852   3.250  0.3207 -1.4149 -1.6347
23842SOL     OW72966   5.982   1.148   0.509 -0.3832 -0.0949  1.0180
23842SOL    HW172967   5.889   1.139   0.488 -0.0370 -3.1488  0.3036
23842SOL    HW272968   5.991   1.114   0.598  0.1714 -0.9851  0.6409
23843SOL     OW72969   0.248   4.861  10.833 -0.4306 -0.7055  0.1551
23843SOL    HW172970   0.315   4.828  10.893  1.5858  1.2624 -0.9097
23843SOL    HW272971   0.247   4.798  10.762 -1.0828 -1.7221  1.0221
23844SOL     OW72972   3.743   3.670   0.841  0.5940 -0.2198 -0.2968
23844SOL    HW172973   3.736   3.643   0.932  2.4340  1.4838  0.4276
23844SOL    HW272974   3.671   3.626   0.797 -0.6363 -0.6995  2.0557
23845SOL     OW72975   3.964   4.995  10.704  0.5734  0.3335  0.2061
23845SOL    HW172976   3.876   4.978  10.739  0.8803 -0.6470  0.5432
23845SOL    HW272977   3.948   5.044  10.624 -0.4032 -1.1213 -0.5474
23846SOL     OW72978   6.419   6.735   7.322  0.0742 -0.0474  0.1589
23846SOL    HW172979   6.357   6.678   7.368 -1.8469  1.6925 -0.1361
23846SOL    HW272980   6.370   6.769   7.248  1.6129  0.9213 -0.4678
23847SOL     OW72981   2.640   6.563   0.079  0.1322 -0.5587 -0.3401
23847SOL    HW172982   2.559   6.513   0.069 -0.3396  0.1918 -0.3875
23847SOL    HW272983   2.627   6.615   0.158  0.2025  0.2203 -0.8284
23848SOL     OW72984   6.698   3.555  11.911 -0.1230 -0.5727  0.2172
23848SOL    HW172985   6.756   3.499  11.859  0.6152  0.7736 -0.4747
23848SOL    HW272986   6.650   3.606  11.846 -2.3813 -1.8727  0.7732
23849SOL     OW72987   7.421   0.587   8.231 -0.1680  0.9893 -0.3575
23849SOL    HW172988   7.381   0.507   8.267 -0.8375  1.1965 -0.6207
23849SOL    HW272989   7.448   0.562   8.142  0.0202  0.9275 -0.2814
23850SOL     OW72990   7.696   5.953   1.225  0.4823 -0.0930 -0.2020
23850SOL    HW172991   7.713   5.926   1.315  0.0539 -0.4267 -0.2178
23850SOL    HW272992   7.702   6.049   1.227  2.0874 -0.1666 -0.1595
23851SOL     OW72993   2.251   5.392   2.820  0.7806  0.5207 -0.7614
23851SOL    HW172994   2.230   5.380   2.912  1.3815  0.8939 -0.5684
23851SOL    HW272995   2.197   5.465   2.791 -1.1003 -1.0133 -1.3135
23852SOL     OW72996   7.347   5.909   1.992  0.0973  0.4058 -0.5282
23852SOL    HW172997   7.274   5.959   1.955 -0.0002  0.7705  0.1509
23852SOL    HW272998   7.325   5.817   1.972 -0.2193  0.5563 -0.8984
23853SOL     OW72999   0.762   3.464   7.734  0.5302 -0.3611 -0.3886
23853SOL    HW173000   0.756   3.438   7.642  1.0310  2.3325 -1.2957
23853SOL    HW273001   0.856   3.465   7.753  0.5270  0.6111 -0.3686
23854SOL     OW73002   1.054   4.110  11.564 -0.7492 -0.5011  0.0700
23854SOL    HW173003   1.140   4.084  11.598 -0.5497 -0.2645 -0.2500
23854SOL    HW273004   1.000   4.120  11.642 -0.3727 -0.2457  0.3063
23855SOL     OW73005   0.065   4.480   0.860  0.0521 -0.4580 -0.1995
23855SOL    HW173006   0.065   4.410   0.925  0.7365 -1.6108 -1.3959
23855SOL    HW273007  -0.027   4.501   0.848 -0.0885 -0.2927  1.0590
23856SOL     OW73008   5.986   3.683   7.961 -0.2848  0.5615  0.0337
23856SOL    HW173009   5.930   3.710   7.888 -1.6717  0.2271  0.9317
23856SOL    HW273010   5.989   3.588   7.956 -0.3777  0.5361  0.3878
23857SOL     OW73011   4.559   5.357  12.289 -0.6351  0.5995  0.6641
23857SOL    HW173012   4.546   5.440  12.336 -0.4871  0.6856  0.5561
23857SOL    HW273013   4.473   5.337  12.251 -0.6068  0.8427  0.4687
23858SOL     OW73014   4.413   0.027   1.370 -0.2584 -0.0365  0.2582
23858SOL    HW173015   4.470   0.019   1.446  2.3201 -2.0167 -1.7168
23858SOL    HW273016   4.326   0.001   1.402  0.0721  1.9420  3.0830
23859SOL     OW73017   5.542   3.738   3.479 -0.2328  0.6897  0.6096
23859SOL    HW173018   5.617   3.758   3.423 -1.0582 -0.0643 -0.8420
23859SOL    HW273019   5.466   3.748   3.421 -1.0045 -1.7529  1.0920
23860SOL     OW73020   4.101   5.434   9.982  0.0462  0.1322 -0.1574
23860SOL    HW173021   4.083   5.364   9.919 -0.3068  1.0635 -1.1300
23860SOL    HW273022   4.188   5.415  10.015  0.1602 -0.4967 -0.7880
23861SOL     OW73023   7.358   4.823   5.233  0.2838  0.1378  0.2123
23861SOL    HW173024   7.298   4.873   5.176 -0.2704  0.9401  1.4523
23861SOL    HW273025   7.380   4.745   5.182  0.4192  1.1752 -1.4162
23862SOL     OW73026   7.822   1.739   8.402  0.0709  0.1815  0.2325
23862SOL    HW173027   7.739   1.728   8.354 -0.2991  1.6589  0.4730
23862SOL    HW273028   7.823   1.667   8.464 -0.6438 -0.3379 -0.3334
23863SOL     OW73029   7.132   7.285   9.282  0.2617 -0.2080  0.0810
23863SOL    HW173030   7.063   7.351   9.277  0.8566  0.5372  1.3267
23863SOL    HW273031   7.093   7.214   9.332  0.0310 -0.2839 -0.2017
23864SOL     OW73032   0.624   1.562   8.235 -0.0829 -0.3120  0.5015
23864SOL    HW173033   0.619   1.657   8.224 -0.9561 -0.4966 -1.0482
23864SOL    HW273034   0.699   1.549   8.293 -0.0313  1.3261  0.8681
23865SOL     OW73035   0.690   0.035   8.198 -0.0848 -0.4897  0.2909
23865SOL    HW173036   0.765  -0.006   8.242 -0.8755 -0.8655  1.3155
23865SOL    HW273037   0.659   0.101   8.260  0.3878  0.8431 -0.8160
23866SOL     OW73038   2.533   1.878   3.947  0.4133  0.2965  0.4619
23866SOL    HW173039   2.523   1.965   3.986  1.3946  0.2106  0.9336
23866SOL    HW273040   2.616   1.882   3.900  0.1015 -0.1618 -0.1389
23867SOL     OW73041   0.085   2.784  10.642 -0.2032 -0.7109  0.0048
23867SOL    HW173042   0.023   2.840  10.688  1.9247  2.4712 -0.6293
23867SOL    HW273043   0.109   2.717  10.706 -2.1825 -0.3717  1.1720
23868SOL     OW73044   4.196   3.477   9.967  0.0414  0.4090 -0.1188
23868SOL    HW173045   4.181   3.540   9.897  1.2750 -0.7208 -1.4711
23868SOL    HW273046   4.246   3.524  10.033 -0.4497  1.2699 -0.3445
23869SOL     OW73047   0.017   5.742  10.992 -0.1000 -0.3169 -0.1927
23869SOL    HW173048   0.003   5.825  10.945  0.9686 -0.1960 -0.3164
23869SOL    HW273049  -0.054   5.686  10.961  0.5154 -0.2155 -1.9219
23870SOL     OW73050   2.379   0.976   6.739  0.2032  0.4355  0.6122
23870SOL    HW173051   2.429   1.002   6.817  2.9264 -0.0329 -0.8729
23870SOL    HW273052   2.411   1.033   6.669 -1.2860  0.0160 -0.4700
23871SOL     OW73053   3.305   7.699   2.031  0.5043 -0.2734 -0.0901
23871SOL    HW173054   3.212   7.711   2.046  0.3957 -1.0745 -0.0874
23871SOL    HW273055   3.347   7.748   2.103  0.1287  0.9828 -0.6958
23872SOL     OW73056   7.883   0.056   5.991  0.0451 -0.3612  0.0409
23872SOL    HW173057   7.823  -0.014   5.965 -0.6545  0.6108 -1.1041
23872SOL    HW273058   7.923   0.085   5.909  1.7159 -0.6287  0.7267
23873SOL     OW73059   5.991   7.242   8.763 -0.3847 -0.1535 -0.0908
23873SOL    HW173060   5.943   7.173   8.717 -0.1765 -0.7307  0.5454
23873SOL    HW273061   6.060   7.268   8.702 -0.4121 -0.5708 -0.3055
23874SOL     OW73062   0.226   1.020   2.284  0.5410  0.0980 -0.0892
23874SOL    HW173063   0.177   1.012   2.202  1.2293  1.8507 -0.7192
23874SOL    HW273064   0.160   1.042   2.349  0.1405 -0.1514 -0.4056
23875SOL     OW73065   7.160   4.119   8.126 -0.4798 -0.3527  0.2033
23875SOL    HW173066   7.120   4.198   8.161 -0.4605 -0.7621  1.1625
23875SOL    HW273067   7.229   4.151   8.068  0.1255  0.3400  1.2809
23876SOL     OW73068   2.030   5.725   9.395  0.1373 -0.4516 -0.0732
23876SOL    HW173069   1.976   5.676   9.457  1.4438 -0.4140  1.1367
23876SOL    HW273070   2.112   5.740   9.441 -0.0011  2.4119 -0.5966
23877SOL     OW73071   5.281   2.412   6.018  0.7000 -0.0885 -0.2353
23877SOL    HW173072   5.337   2.415   6.096  1.9943  1.7180 -1.1592
23877SOL    HW273073   5.193   2.426   6.051  1.1500  0.0363  0.9577
23878SOL     OW73074   4.455   3.545   0.402 -0.1470  0.0511 -0.2537
23878SOL    HW173075   4.380   3.551   0.461  0.3622 -0.6209  0.4730
23878SOL    HW273076   4.434   3.606   0.331 -0.7801  0.8557  0.6004
23879SOL     OW73077   7.541   1.170   2.223  0.3960  0.0007  0.6722
23879SOL    HW173078   7.482   1.102   2.192  1.1132 -0.9010  1.2574
23879SOL    HW273079   7.624   1.126   2.240  1.5426  1.3957 -0.9626
23880SOL     OW73080   1.327   0.066   0.729  0.4645  0.1604  0.3466
23880SOL    HW173081   1.324   0.158   0.757  2.1126  0.5723 -0.6933
23880SOL    HW273082   1.410   0.034   0.765 -0.7459 -1.3884  1.9329
23881SOL     OW73083   0.937   2.054  11.431  0.8179 -0.0746 -0.1836
23881SOL    HW173084   1.003   2.121  11.412  0.9625 -0.5073 -1.2183
23881SOL    HW273085   0.934   1.999  11.353 -0.5539 -0.2427 -0.0354
23882SOL     OW73086   6.224   3.583   4.426 -0.3837 -0.3647 -0.1070
23882SOL    HW173087   6.261   3.603   4.512  0.5064 -2.2403 -0.0041
23882SOL    HW273088   6.135   3.619   4.430  0.0491  0.6802  1.1175
23883SOL     OW73089   2.434   3.721   2.086  0.4497 -0.0794  0.0741
23883SOL    HW173090   2.364   3.743   2.147 -0.3544  1.4299 -1.3530
23883SOL    HW273091   2.510   3.707   2.142 -0.5497  0.0288  1.5129
23884SOL     OW73092   5.131   1.702  10.866  0.0384 -0.2368 -0.0645
23884SOL    HW173093   5.079   1.631  10.904  0.1882  0.5972  1.7851
23884SOL    HW273094   5.066   1.764  10.833 -0.0942 -0.8058 -0.9034
23885SOL     OW73095   1.401   7.854   3.258  0.6611  0.3749  0.3427
23885SOL    HW173096   1.313   7.866   3.222  0.3269 -0.2939  0.9133
23885SOL    HW273097   1.388   7.797   3.334  1.7132 -0.5741 -0.1613
23886SOL     OW73098   4.091   6.984   2.940 -0.0994  0.0416 -0.2360
23886SOL    HW173099   4.076   6.921   2.870  0.4749 -0.7277  0.3163
23886SOL    HW273100   4.017   6.973   2.999 -0.1292  0.0682 -0.2681
23887SOL     OW73101   3.309   0.920   7.148 -0.3508 -0.3982  0.0082
23887SOL    HW173102   3.264   0.836   7.147 -1.4687  0.1926 -1.0511
23887SOL    HW273103   3.358   0.923   7.065 -0.8735  0.2738 -0.2882
23888SOL     OW73104   3.312   4.602   4.166  0.2957 -0.1335  0.2954
23888SOL    HW173105   3.313   4.697   4.154 -1.3768 -0.1652 -0.4117
23888SOL    HW273106   3.235   4.585   4.220  0.2541 -1.1179 -0.0459
23889SOL     OW73107   5.619   0.896  10.911 -0.3316  0.7004 -0.2952
23889SOL    HW173108   5.706   0.883  10.949 -0.1883  0.7199 -0.6092
23889SOL    HW273109   5.634   0.956  10.838 -0.6360  0.8342 -0.2477
23890SOL     OW73110   0.218   3.306  11.172 -0.3341  0.0657 -0.4048
23890SOL    HW173111   0.237   3.396  11.144 -2.1917  0.0925 -1.7410
23890SOL    HW273112   0.243   3.305  11.264  2.1447  1.1835 -0.9771
23891SOL     OW73113   5.783   0.233   5.666  0.1242 -0.2363  0.8465
23891SOL    HW173114   5.770   0.236   5.760  0.3121  0.1099  0.8630
23891SOL    HW273115   5.710   0.282   5.630 -0.8501 -1.7045  0.7148
23892SOL     OW73116   5.458   6.416   7.925 -0.0981 -0.2291  0.2440
23892SOL    HW173117   5.399   6.343   7.943  0.0965 -0.0688  1.6455
23892SOL    HW273118   5.426   6.488   7.978 -1.2927  1.3222 -2.3520
23893SOL     OW73119   4.746   1.873   4.895 -0.4368 -0.1645  0.1395
23893SOL    HW173120   4.792   1.907   4.817  1.7212  0.1275  1.4433
23893SOL    HW273121   4.782   1.785   4.906  0.2048  0.2411  1.4616
23894SOL     OW73122   7.429   7.400   7.073 -0.4943 -0.2973  0.8016
23894SOL    HW173123   7.442   7.317   7.118 -0.1347 -0.4963  0.3455
23894SOL    HW273124   7.492   7.460   7.114  0.3297 -0.6633  0.1155
23895SOL     OW73125   6.834   5.820   6.179 -0.4148 -0.1911  0.1143
23895SOL    HW173126   6.835   5.745   6.238  2.1492 -0.9665 -0.8025
23895SOL    HW273127   6.752   5.811   6.130 -0.3365 -2.2230  0.2636
23896SOL     OW73128   4.446   7.570   3.592 -0.6991 -0.1608 -0.3822
23896SOL    HW173129   4.412   7.642   3.645 -0.9115 -0.5680  0.0324
23896SOL    HW273130   4.393   7.494   3.617 -0.9572 -0.3102 -1.3337
23897SOL     OW73131   6.551   0.745   5.910 -0.0309  0.2641  0.3432
23897SOL    HW173132   6.541   0.709   5.822  1.5813 -0.8315  0.5838
23897SOL    HW273133   6.546   0.840   5.897 -2.8307  0.1078 -0.4880
23898SOL     OW73134   7.353   4.929   9.715  0.4360 -0.4303  0.0616
23898SOL    HW173135   7.279   4.900   9.768 -3.1195  1.9166 -3.0982
23898SOL    HW273136   7.336   4.895   9.627  1.8375  2.0364 -1.3017
23899SOL     OW73137   4.448   6.441   2.258  0.1220 -0.1089 -0.0264
23899SOL    HW173138   4.371   6.439   2.201 -1.5428  2.3114  1.8898
23899SOL    HW273139   4.429   6.377   2.326 -0.9997  1.4998  1.2520
23900SOL     OW73140   7.756   4.000  10.393 -0.6586  0.3682  0.1391
23900SOL    HW173141   7.834   4.014  10.340 -1.8179 -0.4848 -1.9233
23900SOL    HW273142   7.779   3.928  10.452 -0.0219 -0.2613 -0.8374
23901SOL     OW73143   0.148   3.515   5.482 -0.5115 -0.1180  0.4161
23901SOL    HW173144   0.244   3.522   5.482 -0.4279 -0.8567 -0.8530
23901SOL    HW273145   0.127   3.467   5.562  0.3022 -1.1636  0.0239
23902SOL     OW73146   2.854   2.005   3.813  0.1487  0.4367 -0.0873
23902SOL    HW173147   2.863   1.935   3.877 -1.1715  0.0721 -0.2790
23902SOL    HW273148   2.847   1.960   3.729 -0.9069  0.7631 -0.1915
23903SOL     OW73149   4.909   7.839   8.286  0.0101 -0.6036 -0.2429
23903SOL    HW173150   4.932   7.918   8.336 -0.6647 -1.9280  2.3597
23903SOL    HW273151   4.821   7.856   8.253  0.0359 -0.1051 -0.0674
23904SOL     OW73152   2.207   5.385  11.537  0.0948  0.2753  0.1736
23904SOL    HW173153   2.188   5.311  11.479 -1.2051 -0.4650  1.5006
23904SOL    HW273154   2.146   5.453  11.509 -0.4125 -0.0207  0.5460
23905SOL     OW73155   6.512   5.971   8.996 -0.6759  0.1545  0.1342
23905SOL    HW173156   6.446   6.001   9.059 -1.1194  0.5736 -0.5184
23905SOL    HW273157   6.589   5.950   9.049 -1.5817 -1.1176  1.0126
23906SOL     OW73158   4.166   2.896   8.804  0.0999 -0.0324 -0.3331
23906SOL    HW173159   4.083   2.925   8.767  1.1645  0.6326 -2.3708
23906SOL    HW273160   4.224   2.885   8.728  2.1172  0.3669  1.0586
23907SOL     OW73161   0.903   4.749   4.082 -0.2845 -0.4878  0.5532
23907SOL    HW173162   0.885   4.675   4.024 -0.3966  0.3121 -0.4575
23907SOL    HW273163   0.971   4.717   4.141 -0.0731 -1.2912 -0.1049
23908SOL     OW73164   3.958   1.735   7.024  0.4614 -0.1120  0.2164
23908SOL    HW173165   3.870   1.703   7.006  0.2247  0.9862 -0.7359
23908SOL    HW273166   3.960   1.752   7.118 -0.4371  0.1315  0.1944
23909SOL     OW73167   1.779   2.460   9.635 -0.3524 -0.3291 -0.2418
23909SOL    HW173168   1.719   2.451   9.561 -0.8252 -1.0951  0.2097
23909SOL    HW273169   1.728   2.430   9.711 -0.2850  1.5730  0.6092
23910SOL     OW73170   5.357   2.416   3.365  0.0022 -0.6932  0.2272
23910SOL    HW173171   5.290   2.357   3.330 -1.2978  0.2711  0.9802
23910SOL    HW273172   5.343   2.498   3.318  2.1746 -1.0838 -1.2348
23911SOL     OW73173   1.748   6.667  10.965  0.5218 -0.1516  0.2696
23911SOL    HW173174   1.773   6.760  10.967 -0.0338 -0.0080  0.6994
23911SOL    HW273175   1.677   6.660  11.029  0.1915 -0.7666 -0.1620
23912SOL     OW73176   1.963   7.918   8.513  0.2870 -0.5394 -0.2291
23912SOL    HW173177   2.028   7.899   8.581  0.2925  0.1396 -0.0300
23912SOL    HW273178   1.880   7.926   8.560 -0.1419 -2.4199 -0.6109
23913SOL     OW73179   0.065   0.559  10.273 -0.7029 -0.2039 -0.0215
23913SOL    HW173180   0.004   0.568  10.346 -0.7039 -1.4879  0.1538
23913SOL    HW273181   0.114   0.642  10.273 -0.3485 -0.3613  1.7622
23914SOL     OW73182   1.065   3.214   9.801 -0.2726 -0.3908  0.0762
23914SOL    HW173183   1.133   3.270   9.838  0.0887 -1.2088  0.6941
23914SOL    HW273184   1.068   3.231   9.707  0.1369  0.2794  0.2061
23915SOL     OW73185   2.262   3.483  12.137 -0.4922  0.5205  0.3438
23915SOL    HW173186   2.222   3.549  12.081 -0.6245 -0.1509 -0.3829
23915SOL    HW273187   2.331   3.530  12.184 -0.4821  1.1432 -0.2699
23916SOL     OW73188   4.887   5.159  10.177 -0.0975  0.3711 -0.2288
23916SOL    HW173189   4.950   5.220  10.138  0.6778  0.0661  0.5110
23916SOL    HW273190   4.860   5.200  10.259 -0.5234  0.2865 -0.3221
23917SOL     OW73191   4.680   5.642   7.579  0.0026  0.1214 -0.2096
23917SOL    HW173192   4.763   5.609   7.614  0.0715  2.4482  2.1090
23917SOL    HW273193   4.614   5.583   7.614  0.4559 -0.0984  0.2877
23918SOL     OW73194   6.930   1.780  10.355 -0.4731 -0.1347 -0.3930
23918SOL    HW173195   6.858   1.824  10.400 -0.5687 -2.0632  1.5029
23918SOL    HW273196   6.960   1.713  10.417  1.2283 -1.1222 -2.1661
23919SOL     OW73197   0.156   4.238   2.480  0.2136  0.8282 -0.4808
23919SOL    HW173198   0.062   4.221   2.473  0.2624  0.8730 -1.3349
23919SOL    HW273199   0.175   4.297   2.407  1.1105 -0.0845 -1.0095
23920SOL     OW73200   1.879   2.156   1.400 -0.2318  0.5583  0.3446
23920SOL    HW173201   1.912   2.244   1.383  0.0685  0.6568  1.3760
23920SOL    HW273202   1.947   2.114   1.452 -0.2857 -0.3620 -0.2880
23921SOL     OW73203   1.027   1.774  12.185  0.4248 -0.8444  0.1451
23921SOL    HW173204   1.003   1.682  12.196  1.9554 -1.1457  1.4151
23921SOL    HW273205   1.123   1.774  12.186  0.4565  0.7454  0.0157
23922SOL     OW73206   7.185   4.078   9.529 -0.3671 -0.3459 -0.3761
23922SOL    HW173207   7.170   4.003   9.586  0.8096  0.3554  0.9213
23922SOL    HW273208   7.108   4.081   9.472 -0.7010 -2.1736 -0.0769
23923SOL     OW73209   3.513   7.958  10.461 -0.2121 -0.3786  0.1775
23923SOL    HW173210   3.569   7.881  10.453  2.6900  1.7520 -2.4528
23923SOL    HW273211   3.443   7.944  10.398  0.0935 -1.0196 -0.0237
23924SOL     OW73212   7.573   6.558   1.993  0.6893 -0.0902 -0.3505
23924SOL    HW173213   7.533   6.627   1.940  1.0285  1.3316  1.1587
23924SOL    HW273214   7.657   6.595   2.021  0.2158 -0.4730  1.7231
23925SOL     OW73215   3.295   4.481   5.743 -0.3638  0.2680  0.0714
23925SOL    HW173216   3.320   4.409   5.685 -3.3908 -0.5676 -0.3999
23925SOL    HW273217   3.213   4.451   5.784  0.1123  2.0397  2.5738
23926SOL     OW73218   2.992   7.531   5.643  0.5508  0.1892  0.5680
23926SOL    HW173219   2.993   7.439   5.670  1.4858  0.2881  0.9066
23926SOL    HW273220   3.084   7.558   5.645  0.3802  0.8950 -0.3569
23927SOL     OW73221   3.145   6.439   8.859  0.2849  0.1473 -0.1520
23927SOL    HW173222   3.083   6.402   8.796 -1.6468 -0.7540  2.1488
23927SOL    HW273223   3.115   6.528   8.873  0.4723  0.2200 -0.2102
23928SOL     OW73224   7.373   7.161   5.719  0.7279 -0.1059  0.0302
23928SOL    HW173225   7.347   7.074   5.750 -1.7878  0.3108 -0.6586
23928SOL    HW273226   7.380   7.151   5.624 -1.7179  0.8419 -0.3227
23929SOL     OW73227   0.641   5.966   4.627  0.0425  0.1244 -0.1459
23929SOL    HW173228   0.697   6.020   4.683 -0.7743  1.2075 -0.3458
23929SOL    HW273229   0.560   6.017   4.617 -0.3027 -0.6088 -1.2993
23930SOL     OW73230   3.141   2.216   6.637  0.4068 -0.2523 -0.1910
23930SOL    HW173231   3.168   2.301   6.672  1.5941 -0.5795 -0.2685
23930SOL    HW273232   3.145   2.157   6.712 -3.2638  0.2674  0.5957
23931SOL     OW73233   5.144   2.474   7.982  0.5626 -0.1178  0.0406
23931SOL    HW173234   5.059   2.509   7.955  1.2873 -0.5422 -3.2695
23931SOL    HW273235   5.123   2.404   8.043 -1.3955  0.4764  0.1222
23932SOL     OW73236   6.903   6.642   9.929  0.0261 -0.0639 -0.4286
23932SOL    HW173237   6.942   6.575   9.986  3.0108  1.8519  0.0093
23932SOL    HW273238   6.948   6.632   9.846 -2.4272 -1.1199 -1.7235
23933SOL     OW73239   2.350   1.579  10.883 -0.2534 -0.0850  0.5865
23933SOL    HW173240   2.413   1.624  10.828 -0.8420 -0.0025 -0.0398
23933SOL    HW273241   2.271   1.633  10.878  0.1080  0.7534  2.7196
23934SOL     OW73242   1.873   4.020   8.732 -0.2269  0.1860  0.1667
23934SOL    HW173243   1.934   4.028   8.659 -1.3875 -1.0654 -0.9826
23934SOL    HW273244   1.830   4.105   8.737 -1.6100 -0.3353 -1.9853
23935SOL     OW73245   2.744   5.912   8.126 -0.3701 -0.2517 -0.2096
23935SOL    HW173246   2.692   5.905   8.046 -1.1502  0.0501  0.2628
23935SOL    HW273247   2.833   5.888   8.099 -0.9514 -1.8841 -0.7902
23936SOL     OW73248   4.514   4.820   4.615 -0.2516  0.0591 -0.4396
23936SOL    HW173249   4.591   4.765   4.604 -0.3484  0.0258 -0.9633
23936SOL    HW273250   4.462   4.776   4.682 -0.4600 -0.6356 -1.0481
23937SOL     OW73251   6.033   7.504   7.978  0.0791  0.4485 -0.1671
23937SOL    HW173252   5.950   7.505   8.026 -0.7902  0.1963 -1.6304
23937SOL    HW273253   6.013   7.543   7.893  1.6822  1.2481 -0.2281
23938SOL     OW73254   0.423   1.358   5.774 -0.6617 -0.2686 -0.4531
23938SOL    HW173255   0.436   1.424   5.706 -2.0555 -1.5351 -1.9969
23938SOL    HW273256   0.337   1.379   5.811 -0.3698 -0.2302  0.2243
23939SOL     OW73257   4.816   4.023  11.334  0.3714 -0.4224 -0.2187
23939SOL    HW173258   4.867   4.034  11.414 -0.3307  0.7546  0.0840
23939SOL    HW273259   4.782   4.110  11.314  0.3135 -0.7449 -1.6582
23940SOL     OW73260   0.580   1.156  10.608 -0.1712 -0.6189  0.3385
23940SOL    HW173261   0.539   1.151  10.694  2.4571 -0.3212  1.7106
23940SOL    HW273262   0.601   1.248  10.596 -0.0628 -0.7338 -0.3952
23941SOL     OW73263   7.517   7.872  11.612 -0.3493 -0.2540  0.3705
23941SOL    HW173264   7.457   7.866  11.538 -0.5331  0.5622  0.4455
23941SOL    HW273265   7.560   7.957  11.601  0.7069 -0.7627  0.3869
23942SOL     OW73266   4.316   4.542  11.111 -0.3948 -0.6716  0.2893
23942SOL    HW173267   4.301   4.509  11.022 -0.7697 -0.9246  0.4375
23942SOL    HW273268   4.394   4.596  11.105 -1.0351  0.1934 -0.4164
23943SOL     OW73269   2.107   4.648  11.659 -0.2357 -0.0095  0.6792
23943SOL    HW173270   2.160   4.570  11.672  0.5532  0.3033 -0.5003
23943SOL    HW273271   2.048   4.650  11.734  0.8339 -0.8395  1.5733
23944SOL     OW73272   1.140   2.656   7.446  0.6578 -0.6997 -0.3721
23944SOL    HW173273   1.100   2.570   7.430  1.4891 -1.1513 -0.1351
23944SOL    HW273274   1.070   2.719   7.432  0.3582 -1.3293 -1.9218
23945SOL     OW73275   3.639   6.455  12.433  0.7765 -0.1415  0.3187
23945SOL    HW173276   3.686   6.385  12.479 -0.1667 -0.7881  0.3162
23945SOL    HW273277   3.550   6.423  12.424  0.9328 -0.0947 -2.0959
23946SOL     OW73278   0.762   6.697  10.013 -0.4582  0.1018 -0.0841
23946SOL    HW173279   0.835   6.667   9.959 -0.0013  0.3813  0.3654
23946SOL    HW273280   0.765   6.793  10.006 -0.4165  0.1390  0.3956
23947SOL     OW73281   5.519   5.636   9.082  0.6274  0.0088  0.0017
23947SOL    HW173282   5.425   5.645   9.096  0.3718 -1.6634 -0.4626
23947SOL    HW273283   5.548   5.577   9.152  1.2695  0.2523 -0.0522
23948SOL     OW73284   2.651   1.328   9.728 -0.0854  0.2127 -0.4767
23948SOL    HW173285   2.739   1.365   9.737 -0.3483  0.7809 -0.2335
23948SOL    HW273286   2.664   1.234   9.742  0.2992  0.4441  0.8902
23949SOL     OW73287   7.674   6.212   9.755 -0.5155  0.4838  0.3218
23949SOL    HW173288   7.614   6.155   9.804 -0.4810 -0.8924 -1.1651
23949SOL    HW273289   7.655   6.193   9.663  1.7791  0.4669 -0.2047
23950SOL     OW73290   6.689   4.550   9.618  0.0032  0.0800 -0.4520
23950SOL    HW173291   6.635   4.501   9.557  0.8314 -0.2238 -0.9580
23950SOL    HW273292   6.767   4.573   9.568  0.0345  1.1219  0.0529
23951SOL     OW73293   7.720   1.592   5.212 -0.3867  0.4225  0.4852
23951SOL    HW173294   7.636   1.611   5.253 -1.2065 -2.9613  0.6082
23951SOL    HW273295   7.701   1.590   5.118 -0.3247  0.1201  0.4793
23952SOL     OW73296   7.474   2.303   3.104  0.6462 -0.8082  0.1245
23952SOL    HW173297   7.433   2.218   3.087 -0.9502  0.0602 -0.5442
23952SOL    HW273298   7.484   2.343   3.018 -1.5120  0.9248  0.5611
23953SOL     OW73299   7.066   3.810   6.608 -0.1283  0.5660  0.0372
23953SOL    HW173300   7.084   3.772   6.694  1.7851 -0.2754 -0.6669
23953SOL    HW273301   7.152   3.819   6.568 -0.9371  1.4207 -1.6036
23954SOL     OW73302   4.290   4.237  11.879 -0.1911  0.4417 -0.2170
23954SOL    HW173303   4.271   4.331  11.885 -0.6420  0.2962  1.0869
23954SOL    HW273304   4.367   4.231  11.823 -0.3088  1.5674 -0.5254
23955SOL     OW73305   5.224   3.644   8.678  0.1335  0.4711  0.5229
23955SOL    HW173306   5.129   3.629   8.674  0.3494 -1.6951  1.9435
23955SOL    HW273307   5.235   3.704   8.752 -0.1751  1.6783 -0.3780
23956SOL     OW73308   4.423   7.548   2.035  0.5983  0.3895 -0.0065
23956SOL    HW173309   4.439   7.611   1.965 -1.3573 -0.7330 -1.5688
23956SOL    HW273310   4.404   7.466   1.990 -0.4308 -0.4520  1.8429
23957SOL     OW73311   1.624   4.317   7.611 -0.5598  0.1555  0.9253
23957SOL    HW173312   1.583   4.380   7.552  0.7057 -0.5246 -0.7451
23957SOL    HW273313   1.702   4.361   7.644  0.2335 -0.4413 -0.1107
23958SOL     OW73314   6.333   3.513   0.748  0.0437 -0.5170  0.0846
23958SOL    HW173315   6.284   3.586   0.710  0.7541 -0.6041 -1.0536
23958SOL    HW273316   6.412   3.553   0.784  0.0182 -0.6073  0.2394
23959SOL     OW73317   0.089   2.778   4.473  0.4313  0.3014 -0.2952
23959SOL    HW173318   0.085   2.713   4.543  2.4855  1.0916  0.6502
23959SOL    HW273319   0.154   2.743   4.412  0.6441  0.8834 -0.4091
23960SOL     OW73320   5.698   3.059  10.376 -0.2522  0.4852 -0.4037
23960SOL    HW173321   5.673   2.975  10.339 -0.6655  0.4482 -0.0543
23960SOL    HW273322   5.787   3.074  10.344  0.4087 -0.7869  0.7450
23961SOL     OW73323   6.499   2.231   6.602  0.5802 -0.0806  0.7068
23961SOL    HW173324   6.427   2.184   6.559  1.6485 -0.7644 -0.4253
23961SOL    HW273325   6.557   2.162   6.634  1.1298  0.4531  0.8828
23962SOL     OW73326   6.722   5.816   8.287 -1.0303 -0.4709 -0.1978
23962SOL    HW173327   6.695   5.861   8.367 -2.0219  1.1507 -1.3735
23962SOL    HW273328   6.808   5.852   8.266 -0.6437 -1.1024  0.2558
23963SOL     OW73329   5.625   5.042   0.405  0.1372  0.3716  0.5514
23963SOL    HW173330   5.608   4.988   0.328  0.0176  0.7466  0.3133
23963SOL    HW273331   5.591   4.991   0.478  1.5558 -0.6467  0.5367
23964SOL     OW73332   6.132   7.166   1.273  0.6759 -0.3472  0.7209
23964SOL    HW173333   6.092   7.080   1.281 -0.3023 -0.0196 -0.3702
23964SOL    HW273334   6.193   7.171   1.346  0.6001 -1.8781  0.9218
23965SOL     OW73335   0.037   2.811   9.779  0.5463 -0.2407  0.4034
23965SOL    HW173336   0.026   2.906   9.779  0.6184 -0.2300  0.8911
23965SOL    HW273337   0.109   2.795   9.841 -0.1531 -0.6862  1.1263
23966SOL     OW73338   4.065   6.295   7.807  0.1041 -0.2770  0.0023
23966SOL    HW173339   4.076   6.360   7.876  0.0532 -0.0970 -0.1579
23966SOL    HW273340   4.023   6.220   7.850  0.1282 -0.1891  0.1782
23967SOL     OW73341   6.339   4.696   5.913  0.8791 -0.1519  0.7079
23967SOL    HW173342   6.413   4.740   5.870  0.8177 -0.1022  0.6528
23967SOL    HW273343   6.340   4.732   6.002 -0.7372  1.9496 -0.0285
23968SOL     OW73344   1.774   5.182   6.326  0.1872 -0.0320 -0.1948
23968SOL    HW173345   1.832   5.255   6.303  0.5632 -0.6862 -1.4071
23968SOL    HW273346   1.826   5.104   6.309 -0.1975 -0.6017  1.1249
23969SOL     OW73347   6.290   2.173   8.671 -0.7144  0.1405 -0.7282
23969SOL    HW173348   6.382   2.152   8.690 -0.8712  0.5350  0.5304
23969SOL    HW273349   6.284   2.167   8.575  0.6739  0.3141 -0.8531
23970SOL     OW73350   0.564   4.384   3.357 -0.1488 -0.0611 -0.5088
23970SOL    HW173351   0.646   4.414   3.395 -0.4747  0.1794  0.0116
23970SOL    HW273352   0.590   4.320   3.290  0.4648  0.1458 -0.4671
23971SOL     OW73353   1.893   7.762   7.043  0.0247 -0.3140 -0.2116
23971SOL    HW173354   1.850   7.742   6.960  0.4878  0.7107 -0.7117
23971SOL    HW273355   1.962   7.696   7.051 -0.3824 -0.7624 -0.3540
23972SOL     OW73356   6.762   2.597   7.312  0.0960  0.4887  0.1252
23972SOL    HW173357   6.841   2.651   7.314  0.3189  0.2284 -0.9209
23972SOL    HW273358   6.732   2.595   7.402  1.7621 -0.0984  0.7017
23973SOL     OW73359   7.571   1.646  10.363 -0.0929  0.5247  0.2419
23973SOL    HW173360   7.601   1.650  10.272  0.9809 -1.3387  0.4850
23973SOL    HW273361   7.590   1.733  10.398  1.8393  0.4951 -0.6154
23974SOL     OW73362   4.644   6.820  11.524 -0.2091  0.6674  0.3474
23974SOL    HW173363   4.658   6.777  11.439  0.2043  0.2372  0.6253
23974SOL    HW273364   4.684   6.906  11.515  0.4647  0.3540  0.3376
23975SOL     OW73365   0.236   7.182  12.071  0.1267  0.3625 -0.6547
23975SOL    HW173366   0.287   7.148  11.997  1.4455  0.0906  0.3502
23975SOL    HW273367   0.267   7.132  12.147 -0.3780  1.4280  0.2814
23976SOL     OW73368   4.891   4.860   4.879  0.1958  0.1308 -0.0541
23976SOL    HW173369   4.935   4.818   4.806  1.6042  0.6446  0.4751
23976SOL    HW273370   4.899   4.954   4.860  1.1132  0.2899  1.0432
23977SOL     OW73371   5.381   7.194   8.682  0.0902 -0.1183  0.4240
23977SOL    HW173372   5.388   7.196   8.586 -1.3481 -0.8936  0.2713
23977SOL    HW273373   5.439   7.264   8.712 -0.6306  1.2060 -1.1017
23978SOL     OW73374   1.555   6.777   6.077 -0.0497 -0.4903 -0.1159
23978SOL    HW173375   1.649   6.790   6.080 -0.2110  0.7528  0.0089
23978SOL    HW273376   1.544   6.691   6.036  1.1087 -0.1395 -1.2488
23979SOL     OW73377   7.137   3.762  12.152  0.8614 -0.0683 -0.5397
23979SOL    HW173378   7.067   3.742  12.089 -1.3345  0.0509  1.7087
23979SOL    HW273379   7.149   3.856  12.146 -2.5024  0.7116  2.0957
23980SOL     OW73380   3.324   4.981   2.554  0.6856  0.1827 -0.0374
23980SOL    HW173381   3.319   5.031   2.636 -2.6252  1.4122 -0.8015
23980SOL    HW273382   3.251   4.919   2.559 -0.2415  0.9648 -2.3820
23981SOL     OW73383   4.824   2.401   5.796  0.3376  0.4614 -0.5875
23981SOL    HW173384   4.760   2.399   5.725 -0.6802  0.9622  0.2909
23981SOL    HW273385   4.909   2.406   5.752 -0.1840 -0.6294 -1.7764
23982SOL     OW73386   0.943   4.004   9.326  0.0896  0.1263 -0.5831
23982SOL    HW173387   0.926   4.098   9.321  0.0172  0.1859  0.5292
23982SOL    HW273388   0.943   3.984   9.420  0.6231 -0.8916 -0.7800
23983SOL     OW73389   4.260   3.343  11.794 -0.2460  0.3545  0.3449
23983SOL    HW173390   4.174   3.301  11.802  0.6951 -1.4589  1.8091
23983SOL    HW273391   4.241   3.434  11.770 -2.4756 -0.4138 -1.0161
23984SOL     OW73392   4.356   7.007   8.106  0.2668 -0.0292 -0.6095
23984SOL    HW173393   4.341   6.913   8.103  0.6616 -0.0726 -1.2732
23984SOL    HW273394   4.332   7.039   8.019 -1.5936  0.7657  0.1348
23985SOL     OW73395   5.568   6.033   6.475  0.0856  0.0951 -0.2956
23985SOL    HW173396   5.566   6.108   6.416  0.5903  0.3793  0.0287
23985SOL    HW273397   5.481   6.029   6.513 -0.3389 -0.2859 -1.2842
23986SOL     OW73398   4.248   7.789   4.277 -0.1476 -0.4391 -0.0938
23986SOL    HW173399   4.182   7.756   4.216 -1.9939  0.5912  1.2475
23986SOL    HW273400   4.224   7.881   4.291  1.0863 -0.2561  1.0589
23987SOL     OW73401   2.740   7.843   0.599 -0.0781 -0.0908  0.2600
23987SOL    HW173402   2.707   7.908   0.537 -0.3949  1.1202  1.6446
23987SOL    HW273403   2.666   7.784   0.613  0.1589 -0.6887 -0.8776
23988SOL     OW73404   2.008   6.025   6.579  0.2836 -0.3406 -0.6233
23988SOL    HW173405   2.029   5.991   6.492  0.9501 -2.0580  0.1643
23988SOL    HW273406   1.916   6.001   6.592  0.6351 -1.5638 -0.2375
23989SOL     OW73407   3.969   4.951   0.239 -0.0331  0.5286 -0.2159
23989SOL    HW173408   3.897   4.889   0.253 -0.7536  1.2292 -0.7349
23989SOL    HW273409   3.953   5.021   0.301 -0.0656  0.9099 -0.6497
23990SOL     OW73410   7.908   1.404   3.115 -0.0214 -0.2212 -0.0857
23990SOL    HW173411   7.919   1.455   3.035 -0.8011 -0.3391 -0.2681
23990SOL    HW273412   7.852   1.331   3.091  0.1223 -0.5205  0.4599
23991SOL     OW73413   2.536   3.406  12.415  0.0314 -1.0442  0.1543
23991SOL    HW173414   2.598   3.352  12.464  0.6169 -0.4611  0.0633
23991SOL    HW273415   2.587   3.445  12.345 -0.4343 -0.5504  0.0778
23992SOL     OW73416   5.066   3.809  12.012  0.1812  0.1009 -0.7274
23992SOL    HW173417   5.118   3.738  11.975 -0.1375 -0.0241 -0.9355
23992SOL    HW273418   4.979   3.797  11.975  0.1008  0.5409 -0.6873
23993SOL     OW73419   7.084   3.501   0.841 -0.0201  0.2329 -0.0285
23993SOL    HW173420   7.113   3.574   0.786 -0.8691 -0.6734 -1.7273
23993SOL    HW273421   6.992   3.519   0.858 -0.5284 -0.9543 -1.3701
23994SOL     OW73422   3.118   5.800   5.912  0.0225  0.0871 -0.0255
23994SOL    HW173423   3.197   5.831   5.868 -0.7925  1.9163 -0.2739
23994SOL    HW273424   3.092   5.722   5.862  1.5928 -0.5100  0.0193
23995SOL     OW73425   1.907   5.993   9.535 -0.3621  0.4566  0.7450
23995SOL    HW173426   1.890   5.906   9.498  0.2308  0.4301  0.5236
23995SOL    HW273427   1.904   5.979   9.630  0.4950  0.0264  0.7195
23996SOL     OW73428   4.858   1.545   1.299  0.7158 -0.0940 -0.2235
23996SOL    HW173429   4.767   1.532   1.273  0.6813 -0.0477 -0.1233
23996SOL    HW273430   4.876   1.473   1.359  0.3851  0.5813  0.6981
23997SOL     OW73431   6.092   3.711   0.856 -0.1722 -0.2114  0.2944
23997SOL    HW173432   6.140   3.751   0.783  0.9038  1.2235  1.6961
23997SOL    HW273433   6.009   3.758   0.858 -0.3227 -0.4507 -0.1665
23998SOL     OW73434   6.690   5.882   9.472  0.2867  0.1870  0.3522
23998SOL    HW173435   6.610   5.882   9.524 -0.4666  2.3920 -0.6621
23998SOL    HW273436   6.757   5.914   9.532 -0.1800  0.9277  0.4944
23999SOL     OW73437   2.557   7.582   1.180  0.0003  0.6696  0.0053
23999SOL    HW173438   2.544   7.639   1.256  1.3740 -0.4341  1.1240
23999SOL    HW273439   2.580   7.642   1.109 -0.5450  1.6670  0.6565
24000SOL     OW73440   6.009   4.259   5.945  0.5909  0.1067  0.2750
24000SOL    HW173441   6.029   4.260   6.039  1.1271 -0.3300  0.1657
24000SOL    HW273442   6.076   4.315   5.905  0.8031 -0.2976  0.0657
24001SOL     OW73443   3.435   1.786   2.895  0.1735  0.9483  0.2004
24001SOL    HW173444   3.458   1.795   2.802  0.1035 -0.9264 -0.0387
24001SOL    HW273445   3.344   1.815   2.900  0.0991  0.8309 -0.3695
24002SOL     OW73446   4.801   3.974   1.397 -0.5252 -0.1357  0.3967
24002SOL    HW173447   4.762   3.960   1.484  0.6588  0.2952  1.0174
24002SOL    HW273448   4.872   4.036   1.412 -1.0432  0.8762 -1.0912
24003SOL     OW73449   3.831   5.051   3.227 -0.1692 -0.0404  0.0034
24003SOL    HW173450   3.778   5.120   3.188  0.1242  0.4848  0.5167
24003SOL    HW273451   3.919   5.089   3.233  0.1619 -0.7176 -0.3720
24004SOL     OW73452   4.167   0.571   6.030 -0.1420  0.1617  0.0082
24004SOL    HW173453   4.189   0.490   6.076  0.6837  0.6853  0.5576
24004SOL    HW273454   4.173   0.549   5.937  3.2998  0.3464  0.0594
24005SOL     OW73455   7.667   2.166  10.362  0.0716 -0.4127  0.7982
24005SOL    HW173456   7.662   2.261  10.373  1.9027 -0.1061 -0.4960
24005SOL    HW273457   7.634   2.131  10.444  1.2377  1.3987  2.1251
24006SOL     OW73458   1.424   5.759   6.225  0.1195 -0.3271 -0.3113
24006SOL    HW173459   1.339   5.778   6.264 -0.3931 -1.2966 -0.9090
24006SOL    HW273460   1.452   5.842   6.186 -0.2753  0.1446  0.3882
24007SOL     OW73461   0.071   5.953   9.294  0.1773  0.3119 -0.9050
24007SOL    HW173462   0.053   5.969   9.387  1.6510 -1.3720 -0.2766
24007SOL    HW273463   0.118   6.030   9.264  1.7492 -0.0942  0.4014
24008SOL     OW73464   5.524   1.855   6.884  0.4189 -0.7448  0.4890
24008SOL    HW173465   5.569   1.844   6.800  3.0360  0.5677  1.6178
24008SOL    HW273466   5.541   1.775   6.932  0.1020 -0.9240  0.3086
24009SOL     OW73467   7.884   2.833   6.747  0.5447  0.1272 -0.0724
24009SOL    HW173468   7.922   2.781   6.817  1.1793  0.6032 -0.0510
24009SOL    HW273469   7.930   2.917   6.752  1.6183 -0.3006 -1.9558
24010SOL     OW73470   5.967   1.496  11.965  0.1398 -0.9280 -0.3043
24010SOL    HW173471   6.052   1.459  11.942  0.4172 -0.5794  0.1519
24010SOL    HW273472   5.976   1.522  12.056 -0.9327 -2.2709  0.2241
24011SOL     OW73473   7.352   5.001   4.927  0.4622  0.4982  0.0873
24011SOL    HW173474   7.321   5.080   4.881 -0.2149 -0.3947 -1.0441
24011SOL    HW273475   7.275   4.966   4.971  0.6993  0.3098  0.3579
24012SOL     OW73476   2.358   6.411   5.138 -0.3052 -0.3214  0.1639
24012SOL    HW173477   2.320   6.331   5.101  1.7033 -0.9927 -0.5844
24012SOL    HW273478   2.432   6.380   5.190 -0.1359  0.9878  0.7357
24013SOL     OW73479   2.191   6.054   9.460 -0.3036  0.3600 -0.1687
24013SOL    HW173480   2.096   6.039   9.458 -0.2909 -0.0485  1.2436
24013SOL    HW273481   2.206   6.101   9.542  0.8782 -0.7767  0.2948
24014SOL     OW73482   0.555   3.177   9.700  0.0008 -0.2096 -0.2073
24014SOL    HW173483   0.633   3.158   9.753  0.4260  0.9303 -0.3983
24014SOL    HW273484   0.571   3.264   9.665 -1.3705  0.0373 -0.2594
24015SOL     OW73485   5.536   4.961   7.392  0.0850  0.0370  0.2734
24015SOL    HW173486   5.506   4.873   7.369  1.7171 -0.9391  1.6135
24015SOL    HW273487   5.581   4.993   7.314 -1.6213  0.2479 -0.6625
24016SOL     OW73488   1.459   2.898  11.062 -0.0247 -0.0973  0.0191
24016SOL    HW173489   1.405   2.966  11.102  2.3722  0.9839  1.6028
24016SOL    HW273490   1.396   2.839  11.020 -2.6294 -0.1532  3.5682
24017SOL     OW73491   7.454   4.082  10.066 -0.8351 -0.5219  0.3946
24017SOL    HW173492   7.510   4.011  10.034 -0.6972 -0.3622  0.2772
24017SOL    HW273493   7.407   4.044  10.140 -3.1822 -1.7843 -1.5788
24018SOL     OW73494   5.187   3.247   9.018 -0.2787  0.0420  0.0712
24018SOL    HW173495   5.208   3.257   9.111 -1.6183  1.8261  0.2424
24018SOL    HW273496   5.216   3.159   8.996  0.1099 -0.4039  2.1631
24019SOL     OW73497   4.213   2.162   8.694  0.5857  0.0978  0.5213
24019SOL    HW173498   4.174   2.096   8.751  1.2361  0.1736  1.0682
24019SOL    HW273499   4.304   2.168   8.722  1.0184 -0.1105 -0.7567
24020SOL     OW73500   4.607   0.299   6.343  0.1814  0.4136  0.6557
24020SOL    HW173501   4.648   0.327   6.261 -0.9695  0.6775  0.1424
24020SOL    HW273502   4.553   0.224   6.318  1.2339 -0.6736  1.5381
24021SOL     OW73503   1.754   3.948   5.448 -0.5959 -0.2105  0.2882
24021SOL    HW173504   1.836   3.899   5.454 -0.3571  0.1481  0.0229
24021SOL    HW273505   1.707   3.925   5.528  0.1475  0.2555  0.8811
24022SOL     OW73506   3.225   5.743   1.876  0.2018 -0.3738 -0.2558
24022SOL    HW173507   3.274   5.661   1.872 -1.0409 -1.1250 -0.9821
24022SOL    HW273508   3.259   5.789   1.952  1.2982 -1.3246 -0.1596
24023SOL     OW73509   4.762   6.608   2.870  0.5088  0.3172 -0.4088
24023SOL    HW173510   4.777   6.698   2.841 -0.3857  0.4872 -0.3552
24023SOL    HW273511   4.789   6.607   2.962 -1.2098  1.0230  0.1435
24024SOL     OW73512   5.833   7.769   8.117 -0.4358  0.0102  0.0296
24024SOL    HW173513   5.843   7.674   8.114 -0.6366 -0.2307  3.3608
24024SOL    HW273514   5.746   7.782   8.155  0.3310  1.4748  1.3619
24025SOL     OW73515   4.162   2.492  11.696 -0.3861  0.2504 -0.2366
24025SOL    HW173516   4.244   2.451  11.668 -0.1110  1.7061 -1.7123
24025SOL    HW273517   4.167   2.581  11.661 -2.5614  0.3933 -0.2923
24026SOL     OW73518   1.063   4.193   4.845 -0.4004 -0.2931  0.7398
24026SOL    HW173519   1.138   4.241   4.809  0.3153 -1.5522  0.5160
24026SOL    HW273520   1.092   4.165   4.932 -1.1291  0.3965  1.2163
24027SOL     OW73521   5.922   6.543   8.574 -0.0988  0.1382 -0.1153
24027SOL    HW173522   5.888   6.491   8.648 -0.7737 -0.0485 -0.5457
24027SOL    HW273523   5.864   6.521   8.501 -0.1473  1.2145 -0.4062
24028SOL     OW73524   0.571   6.289   9.126  0.4338 -0.2377  0.7271
24028SOL    HW173525   0.602   6.279   9.216 -1.1763  1.4433  1.5242
24028SOL    HW273526   0.506   6.220   9.115 -0.1345  0.2111  1.2296
24029SOL     OW73527   5.051   1.164   4.898  0.1409  0.3380  0.3297
24029SOL    HW173528   5.018   1.222   4.830 -1.6451 -0.0073  0.8360
24029SOL    HW273529   5.009   1.080   4.880  1.5833 -0.4463  0.4334
24030SOL     OW73530   2.146   0.490  11.277 -0.0520 -0.5596  0.8534
24030SOL    HW173531   2.143   0.569  11.332 -0.8601 -1.1669  1.7086
24030SOL    HW273532   2.160   0.523  11.189 -0.8499  0.5904  1.1310
24031SOL     OW73533   4.597   3.774   6.099 -0.5412  0.0105  0.3168
24031SOL    HW173534   4.634   3.850   6.054  0.2201 -1.2479 -1.3005
24031SOL    HW273535   4.505   3.797   6.114 -0.0571  1.6777  0.9213
24032SOL     OW73536   3.829   6.187   1.832  0.3800 -0.3163 -0.2674
24032SOL    HW173537   3.739   6.175   1.861  0.2177  1.4343  0.0814
24032SOL    HW273538   3.878   6.116   1.874 -0.7018 -0.8268  0.1489
24033SOL     OW73539   3.616   0.637   5.398 -0.2389  0.2415 -0.2894
24033SOL    HW173540   3.600   0.544   5.416  1.5459 -0.5608 -2.3861
24033SOL    HW273541   3.709   0.641   5.374 -0.7532  2.2045 -2.2791
24034SOL     OW73542   0.434   6.361  11.348  0.1503 -0.3668 -0.2976
24034SOL    HW173543   0.484   6.396  11.422 -2.3813 -0.7054  1.7060
24034SOL    HW273544   0.377   6.295  11.386 -0.5166 -1.3549 -2.7803
24035SOL     OW73545   6.134   3.880   5.217  0.4173 -0.1580 -0.1507
24035SOL    HW173546   6.108   3.958   5.167  0.4905 -0.7604 -1.1546
24035SOL    HW273547   6.053   3.828   5.224  0.3678  0.0004  0.5175
24036SOL     OW73548   4.388   7.627   5.726 -0.2179 -0.1173 -0.8307
24036SOL    HW173549   4.441   7.574   5.786 -1.0336 -1.2640 -1.0909
24036SOL    HW273550   4.418   7.716   5.740 -0.1666 -0.3999  1.0614
24037SOL     OW73551   4.389   3.319   5.692 -0.5276  0.2981  0.0219
24037SOL    HW173552   4.383   3.309   5.787  0.1332  1.5298  0.2095
24037SOL    HW273553   4.452   3.252   5.665 -0.1178  0.4611  0.5579
24038SOL     OW73554   2.923   7.668   0.490  0.0645  0.4403 -0.1154
24038SOL    HW173555   2.865   7.733   0.529  0.5803 -0.4494  2.2714
24038SOL    HW273556   2.960   7.621   0.564  0.4326 -1.9724 -1.7268
24039SOL     OW73557   0.487   1.754   9.213  0.1010 -0.1730 -0.0455
24039SOL    HW173558   0.467   1.723   9.301 -2.6257  0.0058 -0.5316
24039SOL    HW273559   0.551   1.824   9.226 -0.4704  0.0429  1.8141
24040SOL     OW73560   3.894   6.255  11.128  0.1503 -0.8612  0.0002
24040SOL    HW173561   3.917   6.169  11.162 -0.5088 -1.0522 -0.0282
24040SOL    HW273562   3.890   6.243  11.033 -0.5372 -0.9482  0.0375
24041SOL     OW73563   4.873   2.150   6.106 -0.3451 -0.1616 -0.6705
24041SOL    HW173564   4.804   2.084   6.098 -0.6588 -0.0798  0.9676
24041SOL    HW273565   4.950   2.101   6.135 -0.1595 -0.0233 -0.9277
24042SOL     OW73566   1.880   2.436   4.358 -0.0688 -0.1922 -0.4606
24042SOL    HW173567   1.894   2.342   4.373  0.6677 -0.5553 -2.9861
24042SOL    HW273568   1.909   2.477   4.439 -0.3649 -2.1184  0.6998
24043SOL     OW73569   3.098   5.089   5.470 -0.5477 -0.1227 -0.3495
24043SOL    HW173570   3.126   5.052   5.386 -0.6008  1.3966 -1.0605
24043SOL    HW273571   3.178   5.093   5.522 -0.1512  0.6461 -1.0011
24044SOL     OW73572   0.278   7.027   6.262  0.2453 -0.5719 -0.2048
24044SOL    HW173573   0.370   7.047   6.243 -0.1348 -0.4403 -2.0944
24044SOL    HW273574   0.280   6.983   6.346  1.8761  0.8467  0.5536
24045SOL     OW73575   1.844   7.508   9.531 -0.0430  0.2643  0.0858
24045SOL    HW173576   1.834   7.598   9.562 -0.5913  0.7967 -1.5299
24045SOL    HW273577   1.935   7.503   9.501  0.2312  0.0090  0.9242
24046SOL     OW73578   7.428   4.056   4.856  0.5149 -0.1686  0.6668
24046SOL    HW173579   7.360   4.115   4.823  1.7744  0.1263 -1.5659
24046SOL    HW273580   7.380   3.984   4.897 -1.0935  0.9306  0.8001
24047SOL     OW73581   6.481   6.791  12.392  0.0863  0.1687 -0.1560
24047SOL    HW173582   6.529   6.815  12.313 -0.0501 -0.9869 -0.6071
24047SOL    HW273583   6.462   6.874  12.435 -0.7145  0.8922 -1.8416
24048SOL     OW73584   3.658   0.079   3.279  0.0562 -0.2965  0.4162
24048SOL    HW173585   3.583   0.021   3.285  1.0645 -1.5649  1.6886
24048SOL    HW273586   3.694   0.063   3.192  0.6791 -2.1502  0.9485
24049SOL     OW73587   5.984   6.806   2.208  0.0431  0.3367  0.0356
24049SOL    HW173588   5.967   6.796   2.114  0.2545 -2.3998  0.1886
24049SOL    HW273589   5.898   6.804   2.249 -0.0256  1.1270 -0.0579
24050SOL     OW73590   0.043   1.385   9.128  0.0094  0.1359 -0.2999
24050SOL    HW173591  -0.014   1.448   9.172 -0.3384 -1.6049  1.8821
24050SOL    HW273592  -0.013   1.309   9.112  1.0618 -0.6089 -0.5123
24051SOL     OW73593   5.634   0.210   2.587 -0.3418  0.2126  0.3337
24051SOL    HW173594   5.716   0.217   2.538 -0.3436  1.6792  0.4912
24051SOL    HW273595   5.656   0.156   2.663  0.3889  0.2903  0.1851
24052SOL     OW73596   2.722   4.167   1.795  0.2083 -0.5690  0.2744
24052SOL    HW173597   2.787   4.237   1.791  0.9348 -1.1459  1.4056
24052SOL    HW273598   2.750   4.112   1.869 -0.4461 -1.9503 -0.4607
24053SOL     OW73599   2.786   5.594   9.154 -0.1945 -0.0337  0.6875
24053SOL    HW173600   2.696   5.607   9.184 -0.2161  1.2799  0.1064
24053SOL    HW273601   2.777   5.573   9.061  0.1701  2.2243  0.0880
24054SOL     OW73602   7.488   1.513   1.539  0.1879 -0.2105 -0.8270
24054SOL    HW173603   7.481   1.501   1.445 -0.2940  1.4852 -1.0393
24054SOL    HW273604   7.401   1.543   1.566  0.6016  0.2981 -0.0155
24055SOL     OW73605   5.249   6.461   2.468  0.2891  0.0788  0.2636
24055SOL    HW173606   5.199   6.399   2.521  1.5041 -0.9041  0.2915
24055SOL    HW273607   5.248   6.424   2.380  1.0444 -0.0215  0.2869
24056SOL     OW73608   5.540   1.903   4.411 -0.0380  0.3128 -0.0546
24056SOL    HW173609   5.628   1.865   4.406  0.7634  2.0625  0.0765
24056SOL    HW273610   5.530   1.930   4.502 -0.3961  0.7933 -0.2298
24057SOL     OW73611   5.786   2.859  10.730  0.2969 -0.2217 -0.4315
24057SOL    HW173612   5.775   2.923  10.659  1.3069  1.0264  0.4983
24057SOL    HW273613   5.736   2.896  10.803  1.2681 -0.2318  0.2559
24058SOL     OW73614   1.411   2.608   6.871  0.3106 -0.6807 -0.4481
24058SOL    HW173615   1.463   2.679   6.833 -0.7538  0.1859 -0.3490
24058SOL    HW273616   1.413   2.539   6.805  1.1280 -0.4427 -0.6792
24059SOL     OW73617   6.453   4.622   6.752  0.5600  0.4487 -0.2794
24059SOL    HW173618   6.516   4.550   6.751 -0.3536 -0.3733  0.3321
24059SOL    HW273619   6.368   4.581   6.735  0.0451  1.4135 -0.1479
24060SOL     OW73620   0.202   4.437   7.387  0.3589 -0.1901 -0.2968
24060SOL    HW173621   0.279   4.399   7.345  0.6645 -0.2295  0.2931
24060SOL    HW273622   0.237   4.485   7.462 -0.1271  0.3456 -0.4086
24061SOL     OW73623   7.837   7.247   9.667 -0.3216  0.0148  0.1653
24061SOL    HW173624   7.742   7.237   9.678 -0.0680 -2.6726  0.6246
24061SOL    HW273625   7.851   7.236   9.573 -0.7104  4.3489 -0.6118
24062SOL     OW73626   4.008   3.547   0.392 -0.5567 -0.2477  0.0402
24062SOL    HW173627   4.018   3.454   0.373  0.4980 -0.2931  0.7083
24062SOL    HW273628   3.945   3.579   0.328 -1.4801 -1.5678  0.2451
24063SOL     OW73629   6.310   4.753   9.719 -0.2914 -0.5918  0.0183
24063SOL    HW173630   6.406   4.758   9.719 -0.3170  0.1970  0.1755
24063SOL    HW273631   6.289   4.676   9.667  0.4538 -1.3130  0.7417
24064SOL     OW73632   7.719   0.436   3.627  0.0531 -0.2143  0.0116
24064SOL    HW173633   7.714   0.435   3.723 -1.1031  1.2223  0.0156
24064SOL    HW273634   7.633   0.468   3.600  1.2847  2.1692 -1.3848
24065SOL     OW73635   7.576   4.131   4.582 -0.2797 -0.2896  0.0994
24065SOL    HW173636   7.551   4.142   4.674  0.2258  0.5188  0.1547
24065SOL    HW273637   7.537   4.207   4.538 -1.5227 -1.2846 -0.5774
24066SOL     OW73638   1.898   5.521   7.478  0.9348  0.0897 -0.2116
24066SOL    HW173639   1.911   5.441   7.530 -0.5392  0.0047  0.0822
24066SOL    HW273640   1.829   5.568   7.525 -2.4114 -1.2128 -3.3547
24067SOL     OW73641   2.249   5.384   6.804 -0.6015 -0.2613 -0.4879
24067SOL    HW173642   2.278   5.305   6.759  1.2377 -0.1324  0.3862
24067SOL    HW273643   2.237   5.448   6.733 -3.1050 -1.5298 -1.3155
24068SOL     OW73644   4.211   0.001   0.672  0.4169 -0.0235  0.1284
24068SOL    HW173645   4.221   0.020   0.579  1.6562 -0.3485  0.1856
24068SOL    HW273646   4.286  -0.054   0.694 -0.1660 -0.4231  1.1975
24069SOL     OW73647   6.868   6.301   9.244 -0.5469  0.6826  0.1720
24069SOL    HW173648   6.922   6.380   9.244 -0.2982  0.5147 -0.2420
24069SOL    HW273649   6.924   6.233   9.208 -0.7386  0.2959  0.5876
24070SOL     OW73650   3.648   1.933   6.541  0.0995  0.5712  0.1039
24070SOL    HW173651   3.732   1.895   6.515 -0.3037 -0.9302  0.8395
24070SOL    HW273652   3.670   2.016   6.581  1.3998 -0.3962  1.4990
24071SOL     OW73653   2.194   7.127  10.642 -0.5814  0.2634  0.2192
24071SOL    HW173654   2.269   7.186  10.653 -0.0786 -0.1461 -0.7750
24071SOL    HW273655   2.139   7.143  10.718  0.3690  0.7995  0.8233
24072SOL     OW73656   6.411   0.174   1.966  0.4658 -0.3096  0.3659
24072SOL    HW173657   6.426   0.169   1.872 -0.5977  0.4273  0.1360
24072SOL    HW273658   6.322   0.209   1.974  0.1349 -1.3981  1.6455
24073SOL     OW73659   7.601   1.697  11.741 -0.6095 -0.1216 -0.3606
24073SOL    HW173660   7.682   1.746  11.732 -0.0378 -0.8453  0.6093
24073SOL    HW273661   7.537   1.760  11.774 -0.0824  0.1546  0.1465
24074SOL     OW73662   3.591   1.914   9.699 -0.1327 -0.6578  0.3732
24074SOL    HW173663   3.595   1.983   9.633 -0.3877  0.7042  1.7419
24074SOL    HW273664   3.682   1.896   9.721 -0.1066  0.6955  1.4575
24075SOL     OW73665   6.380   4.471   2.659  0.6234  0.1611  0.3919
24075SOL    HW173666   6.295   4.428   2.661  1.2143 -1.3808 -2.3252
24075SOL    HW273667   6.434   4.422   2.721  0.7053 -1.7935 -1.1380
24076SOL     OW73668   5.473   5.953  11.756  0.3160 -0.1803 -1.0353
24076SOL    HW173669   5.505   5.975  11.668  1.9630 -1.1014 -0.7011
24076SOL    HW273670   5.483   5.858  11.762 -0.1120 -0.1685  0.0315
24077SOL     OW73671   2.388   0.702   5.931  0.0235  0.1632  0.7123
24077SOL    HW173672   2.470   0.750   5.933  0.1390 -0.0079  0.2595
24077SOL    HW273673   2.322   0.766   5.957  0.5113 -0.2039  3.0211
24078SOL     OW73674   0.154   7.439   4.547 -0.1910 -0.1200 -0.3347
24078SOL    HW173675   0.173   7.383   4.471 -0.6415  1.3920 -1.6130
24078SOL    HW273676   0.068   7.477   4.529 -0.6598 -0.2941  1.3180
24079SOL     OW73677   6.709   0.041   1.012  0.1842 -0.2030  0.0761
24079SOL    HW173678   6.625   0.075   0.980 -1.1027 -0.2047  3.1185
24079SOL    HW273679   6.771   0.111   0.991 -0.5643 -0.0762 -2.0043
24080SOL     OW73680   2.217   2.125   1.805  0.6181  0.6659  0.5988
24080SOL    HW173681   2.194   2.183   1.877  0.3920  0.3515  0.7809
24080SOL    HW273682   2.294   2.166   1.765  0.1178  1.3973  0.3652
24081SOL     OW73683   3.175   0.128   7.808  0.0389 -0.0124 -0.1311
24081SOL    HW173684   3.084   0.100   7.811  0.1311 -0.2820  0.2345
24081SOL    HW273685   3.200   0.119   7.716  0.0250 -1.0112 -0.0503
24082SOL     OW73686   3.255   1.086   2.927  0.1899  0.0262  0.5176
24082SOL    HW173687   3.224   1.103   3.016 -0.9878  1.1044 -0.0577
24082SOL    HW273688   3.247   1.171   2.883  2.3924 -0.0664 -0.1663
24083SOL     OW73689   0.102   2.030   4.334 -1.0434 -0.1192 -0.3148
24083SOL    HW173690   0.169   1.989   4.278 -0.4060  0.5300 -0.0335
24083SOL    HW273691   0.102   2.122   4.308 -1.0438  0.1017  0.4551
24084SOL     OW73692   3.298   0.032   1.772  0.2784  0.0695  0.2171
24084SOL    HW173693   3.295   0.050   1.678  0.3785 -1.1493 -0.0375
24084SOL    HW273694   3.273   0.114   1.813 -0.0843  0.5285 -0.8845
24085SOL     OW73695   3.189   1.141   9.236 -0.1778  0.0408 -0.6549
24085SOL    HW173696   3.130   1.214   9.215 -1.1905 -0.7554 -0.6796
24085SOL    HW273697   3.263   1.151   9.177 -1.1950 -0.0054 -1.9717
24086SOL     OW73698   4.750   1.711   3.494 -0.0188  0.0587  0.0775
24086SOL    HW173699   4.670   1.694   3.545  0.5537 -1.0172  0.6661
24086SOL    HW273700   4.775   1.800   3.517 -0.6213  0.1227  0.5062
24087SOL     OW73701   0.582   7.871   4.272  0.9315 -0.2949 -0.2061
24087SOL    HW173702   0.640   7.918   4.333 -0.6840 -0.4429  1.5466
24087SOL    HW273703   0.641   7.816   4.221  2.4889  0.7982  0.3424
24088SOL     OW73704   6.659   3.922   8.840 -0.0434 -0.8451 -0.2162
24088SOL    HW173705   6.601   3.848   8.822 -1.1147 -0.1257  0.1615
24088SOL    HW273706   6.745   3.883   8.852  0.0107 -1.7492 -2.9379
24089SOL     OW73707   4.748   0.219   0.883 -0.1879 -0.0856  1.2694
24089SOL    HW173708   4.656   0.244   0.891 -0.4818  0.9554 -2.9074
24089SOL    HW273709   4.747   0.137   0.834  1.0213  0.9307 -0.6115
24090SOL     OW73710   5.355   6.345   2.248 -0.3894 -0.3023 -0.3442
24090SOL    HW173711   5.264   6.336   2.221 -0.7172  1.1446  0.1331
24090SOL    HW273712   5.392   6.409   2.186 -0.4078  0.9651  0.8891
24091SOL     OW73713   0.930   2.410   4.321  0.4176 -0.3160 -0.2037
24091SOL    HW173714   0.911   2.421   4.414 -0.3849 -0.3328 -0.3599
24091SOL    HW273715   1.009   2.462   4.307 -0.3663  1.0497  0.1601
24092SOL     OW73716   7.549   4.965   3.910 -0.4645 -0.1686 -0.0549
24092SOL    HW173717   7.538   4.876   3.944  0.7136  0.0904  1.0430
24092SOL    HW273718   7.634   4.994   3.943 -0.8668  1.4095 -0.3162
24093SOL     OW73719   2.614   7.749   6.740  0.0775  0.4007 -0.2154
24093SOL    HW173720   2.650   7.827   6.782 -0.5891  0.4632  0.2572
24093SOL    HW273721   2.643   7.677   6.796 -1.6712  0.5702  0.9962
24094SOL     OW73722   6.820   7.637   8.266 -0.3089 -0.3802 -0.4494
24094SOL    HW173723   6.871   7.628   8.185  0.4253 -0.7466  0.0333
24094SOL    HW273724   6.852   7.719   8.306 -0.2708 -0.4855 -0.2610
24095SOL     OW73725   1.537   4.953   8.832  0.5859  0.0916  0.2766
24095SOL    HW173726   1.555   4.896   8.757  0.8567 -0.0693  0.4635
24095SOL    HW273727   1.597   4.923   8.900  0.7353  0.6095  0.3755
24096SOL     OW73728   6.692   0.991   8.363 -0.3092 -0.6313 -0.5205
24096SOL    HW173729   6.707   0.937   8.285  0.4483  0.9279 -1.5067
24096SOL    HW273730   6.737   0.944   8.433 -1.2871 -2.2376 -0.9198
24097SOL     OW73731   1.050   0.337   4.736  0.0037  0.2530  0.4105
24097SOL    HW173732   0.958   0.317   4.756 -0.2549  1.5849  0.7002
24097SOL    HW273733   1.049   0.429   4.710  0.7956 -0.5474 -2.8380
24098SOL     OW73734   0.119   3.860   5.269 -0.6254  0.6164 -0.0425
24098SOL    HW173735   0.169   3.852   5.350  1.5022  0.7920 -1.2662
24098SOL    HW273736   0.161   3.933   5.222 -1.6608  0.3824 -1.4002
24099SOL     OW73737   3.189   7.300   5.423  0.9574 -0.7421  0.3825
24099SOL    HW173738   3.135   7.289   5.346  0.5403  0.2099  0.5280
24099SOL    HW273739   3.129   7.288   5.497  1.2030 -0.9063  0.5612
24100SOL     OW73740   4.145   4.921   0.615  0.0744  0.1793  0.3962
24100SOL    HW173741   4.173   5.011   0.630  1.5158 -0.2811  0.5936
24100SOL    HW273742   4.137   4.913   0.520  0.3452  0.3966  0.3565
24101SOL     OW73743   4.712   6.994   6.774  0.2250  0.6390  0.0071
24101SOL    HW173744   4.804   7.017   6.758  0.5470 -0.0328  0.8090
24101SOL    HW273745   4.713   6.900   6.787 -0.6340  0.5811 -0.2796
24102SOL     OW73746   2.866   6.342  12.228 -0.4025 -0.1007  0.3152
24102SOL    HW173747   2.873   6.250  12.201  2.1372 -0.3725  1.6018
24102SOL    HW273748   2.826   6.339  12.314  4.3981 -0.7074  2.8628
24103SOL     OW73749   1.144   3.680   0.097  0.0218 -0.0559 -0.1940
24103SOL    HW173750   1.129   3.679   0.192  0.0954 -0.5816 -0.1848
24103SOL    HW273751   1.183   3.595   0.078 -0.0171  0.0373 -0.7039
24104SOL     OW73752   1.802   4.129   2.092  0.0948  0.2167  0.2601
24104SOL    HW173753   1.732   4.151   2.031  1.1778  1.4049 -0.6106
24104SOL    HW273754   1.878   4.175   2.058  1.3359 -1.1280  1.1252
24105SOL     OW73755   0.838   5.686   3.619 -0.0633  0.1953 -0.7471
24105SOL    HW173756   0.834   5.596   3.587 -1.5347 -0.7274  1.7507
24105SOL    HW273757   0.798   5.738   3.549 -0.4617 -1.2738 -1.6518
24106SOL     OW73758   5.248   5.649   7.717  0.1870 -0.2213 -0.3423
24106SOL    HW173759   5.174   5.674   7.772 -0.2049 -0.8600 -0.5736
24106SOL    HW273760   5.220   5.669   7.628  0.6434  0.3809 -0.3559
24107SOL     OW73761   6.962   7.458   7.193 -0.1468 -0.0006 -0.0965
24107SOL    HW173762   7.013   7.408   7.129 -1.1972 -0.8491 -0.3041
24107SOL    HW273763   6.911   7.519   7.139  1.9049  2.1532  0.2035
24108SOL     OW73764   3.588   5.201   4.588 -0.2125 -0.4005 -0.6821
24108SOL    HW173765   3.616   5.229   4.675 -0.5296  0.6704 -0.9075
24108SOL    HW273766   3.594   5.280   4.534 -1.1870 -0.7427 -1.3314
24109SOL     OW73767   2.673   2.767   0.868  0.0713 -0.1551  0.4020
24109SOL    HW173768   2.704   2.720   0.790 -1.2914 -2.2356  1.0377
24109SOL    HW273769   2.634   2.700   0.923 -1.9249  1.7182  1.4454
24110SOL     OW73770   3.482   0.408   5.454  0.2552  1.5918 -0.4810
24110SOL    HW173771   3.419   0.372   5.516  0.6822  0.0553 -0.8894
24110SOL    HW273772   3.465   0.362   5.372 -0.4601  3.7520 -1.6368
24111SOL     OW73773   4.135   1.336  10.246 -0.0202  0.3807  0.2961
24111SOL    HW173774   4.111   1.426  10.268  2.7184  1.2899  0.0676
24111SOL    HW273775   4.188   1.345  10.167  1.4528 -1.2393  1.0435
24112SOL     OW73776   6.310   1.196   1.979 -0.0319  0.3335 -0.0288
24112SOL    HW173777   6.275   1.258   2.042 -0.4944 -0.8420  0.9096
24112SOL    HW273778   6.235   1.142   1.952  0.7717 -1.5073  1.1901
24113SOL     OW73779   0.723   4.587   2.301  0.3578 -0.1420  0.0964
24113SOL    HW173780   0.784   4.513   2.296 -0.7295 -1.0136 -0.8544
24113SOL    HW273781   0.768   4.651   2.355  0.6643 -2.1563  2.4220
24114SOL     OW73782   4.045   4.807   5.370 -0.2941  0.3520 -0.1171
24114SOL    HW173783   3.992   4.834   5.295 -0.1709  0.1747 -0.2685
24114SOL    HW273784   4.038   4.711   5.371  1.7788  0.1177 -1.4635
24115SOL     OW73785   6.207   3.823   7.862 -0.2725  0.1325 -0.3234
24115SOL    HW173786   6.135   3.876   7.827  0.6104 -0.7407 -3.8748
24115SOL    HW273787   6.173   3.786   7.943 -3.7211  0.0541 -1.6523
24116SOL     OW73788   7.149   5.134  11.926  0.1497 -0.3000  0.3609
24116SOL    HW173789   7.190   5.074  11.988  1.6741  1.4712  1.1759
24116SOL    HW273790   7.129   5.212  11.979 -2.4891 -0.3250 -0.4679
24117SOL     OW73791   5.346   0.924   2.573  0.0151  0.8532 -0.2266
24117SOL    HW173792   5.264   0.972   2.586  0.4058  1.4875 -0.0627
24117SOL    HW273793   5.378   0.953   2.488  0.4104  1.1312  0.0111
24118SOL     OW73794   7.044   4.264   6.410  0.3987  0.2402  0.2871
24118SOL    HW173795   6.969   4.208   6.432  1.3484 -1.4968 -0.6934
24118SOL    HW273796   7.054   4.321   6.486 -1.3270 -0.1151  0.8342
24119SOL     OW73797   6.346   5.407   7.097 -0.6923 -0.4315  0.2826
24119SOL    HW173798   6.323   5.430   7.187 -0.3136 -0.5590  0.4152
24119SOL    HW273799   6.317   5.482   7.045 -0.0263  0.0763  0.6308
24120SOL     OW73800   7.919   0.319   1.534  0.4650  0.1936  0.6669
24120SOL    HW173801   7.904   0.288   1.623  1.3667  1.4402  1.2887
24120SOL    HW273802   7.868   0.400   1.528 -0.5632 -0.4968 -0.3817
24121SOL     OW73803   7.814   4.549   5.484  0.4453  0.4595 -0.3676
24121SOL    HW173804   7.810   4.480   5.418  1.2369  0.7907 -0.7746
24121SOL    HW273805   7.723   4.578   5.494  0.1338 -0.5145 -0.3176
24122SOL     OW73806   1.666   5.157   7.680  0.2628 -0.0433  0.2474
24122SOL    HW173807   1.641   5.238   7.636 -1.0583 -0.4717  0.1594
24122SOL    HW273808   1.756   5.141   7.653 -0.8897 -1.1277 -3.6880
24123SOL     OW73809   2.243   4.675   1.882  0.7129  0.0933 -0.1120
24123SOL    HW173810   2.295   4.604   1.844  0.4549 -0.7774  1.0622
24123SOL    HW273811   2.306   4.743   1.904  0.6899  1.4083 -3.5501
24124SOL     OW73812   4.262   4.577  12.034 -0.0714  0.6351  0.0797
24124SOL    HW173813   4.263   4.512  12.104  1.5792 -1.6723 -1.9195
24124SOL    HW273814   4.219   4.654  12.073 -3.3685 -1.9916  2.2219
24125SOL     OW73815   3.786   4.873   7.374  0.3706  0.2868  0.3320
24125SOL    HW173816   3.742   4.889   7.457 -2.2406  1.7698 -1.1958
24125SOL    HW273817   3.715   4.855   7.312  1.9687  1.8676 -2.1336
24126SOL     OW73818   7.087   7.455   4.209 -0.6775  0.2571 -0.2873
24126SOL    HW173819   7.041   7.534   4.239 -1.3076  0.6526 -2.1711
24126SOL    HW273820   7.174   7.487   4.183 -0.3938  0.0467  0.3834
24127SOL     OW73821   7.121   5.325   0.250 -0.0042  0.1312 -0.0520
24127SOL    HW173822   7.143   5.269   0.324 -1.2972 -2.0023 -1.2000
24127SOL    HW273823   7.039   5.367   0.275 -1.3893 -1.9445 -0.8905
24128SOL     OW73824   1.363   6.210   2.881  0.3583 -0.0856 -0.2771
24128SOL    HW173825   1.336   6.123   2.850  0.6922 -0.4180  0.3481
24128SOL    HW273826   1.458   6.209   2.877  0.4348 -0.2575  1.0297
24129SOL     OW73827   0.890   7.203  12.083 -0.0479  0.1564 -0.8949
24129SOL    HW173828   0.903   7.277  12.142 -2.1491  0.9545 -1.3550
24129SOL    HW273829   0.895   7.126  12.139  0.2249  0.7564 -0.0809
24130SOL     OW73830   6.690   7.716   1.939 -0.0968  0.1793  0.0955
24130SOL    HW173831   6.733   7.685   1.859  0.4755 -0.8238  0.7839
24130SOL    HW273832   6.693   7.812   1.932 -0.1326  0.1070 -1.1212
24131SOL     OW73833   4.333   2.892   0.177 -0.5558 -0.4229 -0.4744
24131SOL    HW173834   4.335   2.839   0.257  0.8441 -2.1303 -1.5511
24131SOL    HW273835   4.423   2.924   0.167 -1.1303  1.2800 -0.4527
24132SOL     OW73836   1.336   3.291  11.313  0.2383 -0.3616  0.1366
24132SOL    HW173837   1.301   3.380  11.308  0.1689 -0.4129 -0.4523
24132SOL    HW273838   1.427   3.300  11.287  0.1759 -0.4904 -0.1320
24133SOL     OW73839   4.268   3.857   5.214  0.1199 -0.3741 -0.4485
24133SOL    HW173840   4.177   3.831   5.199 -0.5832  1.7259 -0.2137
24133SOL    HW273841   4.319   3.802   5.154 -1.3966 -0.8531 -1.3694
24134SOL     OW73842   3.064   2.786   6.842  0.5920  0.5892  0.1781
24134SOL    HW173843   3.132   2.848   6.815  1.6077  0.1970  1.7286
24134SOL    HW273844   2.983   2.836   6.834  1.2660  1.7617  0.3018
24135SOL     OW73845   4.180   1.955   0.363  0.1225 -0.1508  0.5743
24135SOL    HW173846   4.243   1.892   0.327 -0.4949  0.4849 -1.8386
24135SOL    HW273847   4.175   1.934   0.456  1.5580 -2.2342  0.2522
24136SOL     OW73848   2.504   1.377   3.583 -0.1940  0.0157  0.1365
24136SOL    HW173849   2.518   1.472   3.579 -0.6546  0.1554  1.3947
24136SOL    HW273850   2.411   1.366   3.563  0.1496 -0.3108 -1.3890
24137SOL     OW73851   1.647   2.637   8.549  0.1697  0.0949  0.1138
24137SOL    HW173852   1.607   2.589   8.477  0.4774 -0.0153  0.0136
24137SOL    HW273853   1.587   2.625   8.623  0.1054 -0.2086  0.0142
24138SOL     OW73854   2.458   2.042   7.208 -0.3725 -0.1257  0.2120
24138SOL    HW173855   2.518   1.969   7.220 -0.2415  0.2020  1.7302
24138SOL    HW273856   2.388   2.026   7.271  0.1406  1.5232  1.2509
24139SOL     OW73857   2.524   0.090   0.494 -0.1323  0.1000  0.2854
24139SOL    HW173858   2.512   0.149   0.419 -2.3891  2.2763  2.1696
24139SOL    HW273859   2.446   0.035   0.494  0.4258 -0.7035  0.3811
24140SOL     OW73860   7.001   1.106  10.116  0.4999 -0.3408  0.0366
24140SOL    HW173861   6.920   1.100  10.067  0.8099  0.2347 -0.5584
24140SOL    HW273862   6.975   1.137  10.202  0.2775  1.7676 -0.7502
24141SOL     OW73863   4.217   0.318   0.075  0.0390  0.3706 -0.0289
24141SOL    HW173864   4.308   0.293   0.065 -0.1849 -0.6260  0.3490
24141SOL    HW273865   4.179   0.251   0.133 -0.7929  1.0791  0.2751
24142SOL     OW73866   2.538   6.043  10.788 -0.2802 -0.1149  0.0602
24142SOL    HW173867   2.487   5.970  10.750 -1.9959  1.5273 -0.9867
24142SOL    HW273868   2.501   6.121  10.747  3.2999  1.2325 -0.9625
24143SOL     OW73869   6.025   6.384   0.751  0.1871 -0.4999  0.0753
24143SOL    HW173870   6.030   6.409   0.843 -1.0737  0.3937 -0.0754
24143SOL    HW273871   5.932   6.370   0.734  0.2780  0.3848 -1.3203
24144SOL     OW73872   1.821   5.133   9.152 -0.4109 -0.0071  0.1953
24144SOL    HW173873   1.799   5.186   9.076 -0.5755  0.7450  0.7506
24144SOL    HW273874   1.912   5.106   9.138  0.6551  2.6926  1.1330
24145SOL     OW73875   4.070   7.241  11.902  0.2060 -0.1051  0.1451
24145SOL    HW173876   4.113   7.159  11.926 -0.3464 -1.0611 -1.9574
24145SOL    HW273877   3.982   7.233  11.941  0.5948  0.1386  1.1169
24146SOL     OW73878   4.771   7.711  11.383 -0.1517 -0.3635 -0.0362
24146SOL    HW173879   4.750   7.728  11.291 -1.1661  0.0642  0.2616
24146SOL    HW273880   4.861   7.739  11.393 -0.0612 -0.3398 -0.8855
24147SOL     OW73881   6.801   7.591   7.006 -0.2586 -0.0099  0.3684
24147SOL    HW173882   6.732   7.646   7.042 -1.5157 -1.3626  0.0846
24147SOL    HW273883   6.757   7.511   6.978  1.4338 -0.9429  0.2303
24148SOL     OW73884   4.547   3.506   4.024  0.5184 -0.2785  0.3153
24148SOL    HW173885   4.626   3.451   4.031  0.1955 -0.5090  3.4227
24148SOL    HW273886   4.571   3.588   4.067  0.1648  1.1799 -2.0536
24149SOL     OW73887   0.507   6.694   5.227 -0.3191  0.2304 -0.0767
24149SOL    HW173888   0.460   6.613   5.206  0.3661  0.0271 -0.8704
24149SOL    HW273889   0.469   6.722   5.310 -2.6279  0.6517 -1.1800
24150SOL     OW73890   2.694   5.011  10.269  0.0378 -0.1603  0.2278
24150SOL    HW173891   2.641   5.076  10.224  0.5136  2.6279  3.3250
24150SOL    HW273892   2.758   4.983  10.204 -0.1483  2.5594 -1.2560
24151SOL     OW73893   5.999   6.327   0.252 -0.0533  0.1978  0.4113
24151SOL    HW173894   6.029   6.262   0.188 -0.6464 -0.1261  0.4569
24151SOL    HW273895   6.004   6.282   0.336  1.1947  0.7803  0.6713
24152SOL     OW73896   4.885   5.453   8.459 -0.5714 -0.1038  0.0681
24152SOL    HW173897   4.802   5.409   8.442  0.0489 -0.9648 -0.8346
24152SOL    HW273898   4.902   5.436   8.552 -1.0104 -0.6127  0.0616
24153SOL     OW73899   3.721   5.564   4.717 -0.0045 -0.5827  1.0725
24153SOL    HW173900   3.802   5.604   4.748 -0.6150  0.9395  0.8265
24153SOL    HW273901   3.738   5.545   4.624 -0.3459  1.0238  0.6458
24154SOL     OW73902   6.526   3.227   5.735  0.0710  0.0710 -0.3296
24154SOL    HW173903   6.505   3.299   5.677  0.2425 -0.3547 -0.9236
24154SOL    HW273904   6.622   3.226   5.740  0.0383  1.0944  1.2217
24155SOL     OW73905   0.431   1.900   6.585 -0.2482  0.1716  0.2696
24155SOL    HW173906   0.522   1.931   6.583  0.0112 -0.6059 -1.4776
24155SOL    HW273907   0.399   1.913   6.495 -1.3047 -1.2008  0.4174
24156SOL     OW73908   5.621   2.067  11.753  0.4839  0.1063  0.4124
24156SOL    HW173909   5.628   1.974  11.773  0.1191 -0.0591 -0.1869
24156SOL    HW273910   5.561   2.102  11.819 -0.5870 -0.3936 -0.2713
24157SOL     OW73911   5.516   0.978   8.372 -0.1718  0.1733 -0.1727
24157SOL    HW173912   5.508   1.033   8.449  0.3840 -0.0377  0.0441
24157SOL    HW273913   5.608   0.951   8.372  0.4380  1.9209 -2.0792
24158SOL     OW73914   2.594   1.031  10.176 -0.0708 -0.0155  0.4936
24158SOL    HW173915   2.597   1.062  10.085 -1.5200  0.7797  0.6747
24158SOL    HW273916   2.644   1.095  10.225 -0.5147  0.3774  0.4437
24159SOL     OW73917   1.396   4.168  10.750 -0.7506  0.9482 -0.1992
24159SOL    HW173918   1.420   4.260  10.762  0.6263  0.6676 -0.6832
24159SOL    HW273919   1.351   4.144  10.831 -0.0483  1.7194  0.4252
24160SOL     OW73920   5.171   4.334   7.530 -0.4455 -0.0332  0.4904
24160SOL    HW173921   5.160   4.339   7.625 -0.3518  1.2797  0.4484
24160SOL    HW273922   5.139   4.247   7.507  1.3372 -1.1364  1.9587
24161SOL     OW73923   3.808   3.411   2.550 -0.8818 -0.0469  0.0094
24161SOL    HW173924   3.846   3.472   2.613  1.4882 -1.4986  0.1119
24161SOL    HW273925   3.758   3.466   2.490  0.9949  1.9761  0.1923
24162SOL     OW73926   0.155   5.945   0.456  0.1488  0.1924  0.1464
24162SOL    HW173927   0.138   5.862   0.500  0.6587 -0.4757 -0.8970
24162SOL    HW273928   0.234   5.930   0.405 -0.0229  1.1742 -0.4367
24163SOL     OW73929   5.882   0.790   4.950  0.1006  0.4308 -0.2009
24163SOL    HW173930   5.883   0.842   4.869 -0.6682  0.5699 -0.1327
24163SOL    HW273931   5.825   0.840   5.009  0.2493  0.0684  0.2515
24164SOL     OW73932   2.627   2.171   4.263 -0.2389 -0.2110  0.2905
24164SOL    HW173933   2.705   2.213   4.227 -1.1862 -0.2823 -2.0060
24164SOL    HW273934   2.580   2.241   4.308 -0.1394  0.4252 -0.5856
24165SOL     OW73935   0.245   5.098   1.953 -0.5033  0.2434  0.5696
24165SOL    HW173936   0.324   5.140   1.920 -1.5656  1.0886 -1.0607
24165SOL    HW273937   0.277   5.027   2.008  1.3559  2.2813  2.3020
24166SOL     OW73938   7.047   3.296   8.223  0.0321 -0.3391 -0.4176
24166SOL    HW173939   7.020   3.291   8.132 -2.5590  0.3271  0.2346
24166SOL    HW273940   7.101   3.375   8.228 -0.3407 -0.0230 -1.2540
24167SOL     OW73941   4.625   1.168   6.614  0.5311  0.6255  0.2045
24167SOL    HW173942   4.549   1.204   6.569 -0.1507 -0.0895  0.7640
24167SOL    HW273943   4.687   1.242   6.619  0.8944  0.5986 -2.3826
24168SOL     OW73944   5.370   4.857   6.664  0.1496  0.0500  0.2876
24168SOL    HW173945   5.419   4.939   6.657  0.0040  0.2998  1.8938
24168SOL    HW273946   5.310   4.859   6.589  1.4122  0.5167 -0.7460
24169SOL     OW73947   7.527   7.950   0.296 -0.2736  0.0188 -0.4269
24169SOL    HW173948   7.478   7.939   0.377  0.7610 -0.5737  0.1333
24169SOL    HW273949   7.580   7.871   0.288  2.7751  1.8106  0.5143
24170SOL     OW73950   3.966   1.323   5.602  0.6849  0.0999 -0.2818
24170SOL    HW173951   3.966   1.246   5.659 -0.8593  1.6338  1.9801
24170SOL    HW273952   3.882   1.320   5.557  0.1239  1.0056  0.6702
24171SOL     OW73953   6.634   5.538  10.574  0.0537 -0.2049  0.1498
24171SOL    HW173954   6.570   5.494  10.518 -0.7504 -1.3879  1.9101
24171SOL    HW273955   6.706   5.560  10.515  0.7277 -4.2829 -0.9072
24172SOL     OW73956   2.520   5.668  10.480 -0.1143 -0.0035 -0.1108
24172SOL    HW173957   2.614   5.672  10.462 -0.0259  0.4982  0.4254
24172SOL    HW273958   2.503   5.575  10.495  0.0271 -0.2877 -1.5537
24173SOL     OW73959   0.049   7.000   8.555  0.2773 -0.7523  0.3719
24173SOL    HW173960  -0.040   7.010   8.588  0.0402 -1.9788  0.1402
24173SOL    HW273961   0.104   7.034   8.626 -0.3333 -0.8866  0.9217
24174SOL     OW73962   1.541   2.282   5.394 -0.4111 -0.1376  0.2295
24174SOL    HW173963   1.588   2.357   5.356 -0.7679 -0.0455 -0.0378
24174SOL    HW273964   1.483   2.253   5.324 -0.7676 -0.2334  0.5647
24175SOL     OW73965   4.973   6.466   1.671  0.5422 -0.9066 -0.0975
24175SOL    HW173966   5.032   6.541   1.679  1.3839 -1.4443 -1.0343
24175SOL    HW273967   4.959   6.437   1.762 -1.4719  1.5926  0.4979
24176SOL     OW73968   7.069   2.397   4.254 -0.4092 -0.1058  0.2552
24176SOL    HW173969   7.127   2.380   4.328  1.5573  0.7889 -1.0057
24176SOL    HW273970   7.124   2.384   4.176 -1.5002  2.0579 -0.9769
24177SOL     OW73971   0.036   5.598   6.363 -0.0605 -0.5349 -0.1665
24177SOL    HW173972   0.031   5.514   6.318  1.2967 -0.7878  0.1000
24177SOL    HW273973   0.128   5.624   6.355 -0.3068  0.5806  0.3757
24178SOL     OW73974   6.427   7.161   2.191  0.3913  0.3363  0.6094
24178SOL    HW173975   6.365   7.089   2.179  0.2562  0.2785  1.5839
24178SOL    HW273976   6.407   7.222   2.120  1.0930 -0.9732 -0.7649
24179SOL     OW73977   2.129   1.680   3.943  0.1844 -0.9892 -0.3615
24179SOL    HW173978   2.151   1.765   3.982  0.3033 -1.8756  1.6384
24179SOL    HW273979   2.183   1.675   3.864  2.4024 -0.4023  1.0348
24180SOL     OW73980   1.553   2.973   3.716 -0.1915  0.2137 -0.0911
24180SOL    HW173981   1.475   3.019   3.686 -1.8308 -0.2193  3.0655
24180SOL    HW273982   1.555   2.892   3.665 -0.7180  1.0569 -1.4949
24181SOL     OW73983   1.316   7.218   7.442  0.5659 -0.1747  0.2275
24181SOL    HW173984   1.341   7.205   7.351 -1.1673 -1.4032 -0.1152
24181SOL    HW273985   1.300   7.312   7.449 -0.5791 -0.2369 -1.1227
24182SOL     OW73986   3.512   0.328   3.291 -0.6629  0.2674  0.2098
24182SOL    HW173987   3.588   0.360   3.242 -1.5296  0.7362 -0.8722
24182SOL    HW273988   3.511   0.234   3.274  0.6905 -0.0618  1.7075
24183SOL     OW73989   0.823   0.423   7.829  0.2363  0.2805 -0.0081
24183SOL    HW173990   0.817   0.343   7.777 -1.7505  0.0641  0.4690
24183SOL    HW273991   0.737   0.431   7.870  0.0865  3.1095 -0.6778
24184SOL     OW73992   1.072   6.432   1.317  0.1379 -0.5996 -0.5682
24184SOL    HW173993   0.991   6.429   1.268  0.5109 -0.6664 -1.1899
24184SOL    HW273994   1.103   6.341   1.319  0.6050 -0.4556 -1.0330
24185SOL     OW73995   6.108   0.861   7.729  0.2579  0.0048  0.1072
24185SOL    HW173996   6.157   0.861   7.811  1.2724 -1.4466 -0.4653
24185SOL    HW273997   6.032   0.806   7.747 -0.6144  1.3237  0.6439
24186SOL     OW73998   5.237   1.047   3.440 -0.6930  0.7980  0.2255
24186SOL    HW173999   5.299   1.039   3.512 -0.6232  1.0701  0.1963
24186SOL    HW274000   5.259   0.975   3.382 -1.6598 -0.2881  1.1588
24187SOL     OW74001   5.308   1.625   9.004  0.3407  0.2854  0.2327
24187SOL    HW174002   5.319   1.533   8.982  1.1058  0.2518  0.7447
24187SOL    HW274003   5.345   1.634   9.091  0.1141  1.0463  0.2604
24188SOL     OW74004   6.720   3.259  10.212 -0.1571  0.5489  0.1147
24188SOL    HW174005   6.792   3.198  10.194 -0.6469 -0.6940  2.0991
24188SOL    HW274006   6.763   3.344  10.223  1.2396 -0.3606  2.3842
24189SOL     OW74007   0.866   4.418   5.185  0.5870  0.1845 -0.0329
24189SOL    HW174008   0.786   4.466   5.164  0.0307 -1.2883 -1.5553
24189SOL    HW274009   0.858   4.395   5.277 -0.3355  0.7814  0.0426
24190SOL     OW74010   5.887   6.561   7.441  0.2725  0.0470  0.5394
24190SOL    HW174011   5.872   6.654   7.421 -0.4619 -0.0096  0.7694
24190SOL    HW274012   5.801   6.521   7.428  0.8237 -0.8073 -0.6179
24191SOL     OW74013   7.731   6.226   9.231 -0.2096  0.0816  0.1056
24191SOL    HW174014   7.781   6.251   9.309  0.6954 -2.1662  0.3113
24191SOL    HW274015   7.767   6.281   9.161  3.5925 -2.2220 -0.0386
24192SOL     OW74016   3.838   6.435   0.607 -0.6536  0.3672  0.0850
24192SOL    HW174017   3.793   6.519   0.616 -0.0728  0.6022  0.8543
24192SOL    HW274018   3.767   6.372   0.591 -1.7323  0.2232  4.2248
24193SOL     OW74019   4.794   5.481   1.944  0.3943 -0.3668  0.0114
24193SOL    HW174020   4.744   5.466   1.864  0.8167 -0.6547 -0.1993
24193SOL    HW274021   4.876   5.521   1.915  0.1954  0.3214  0.3767
24194SOL     OW74022   4.592   4.713  12.272  0.4682 -0.0367 -0.0538
24194SOL    HW174023   4.536   4.643  12.305 -1.1693  2.3722  2.8304
24194SOL    HW274024   4.572   4.788  12.328  4.3067  1.9370 -0.9549
24195SOL     OW74025   0.393   1.084   6.579  0.1042  0.5554 -0.7009
24195SOL    HW174026   0.410   1.099   6.486 -0.4810  1.1540 -0.7171
24195SOL    HW274027   0.380   1.172   6.616 -1.3351  0.2306 -0.3845
24196SOL     OW74028   7.271   7.168  11.037  0.2062 -0.0440  0.1224
24196SOL    HW174029   7.332   7.219  11.091 -0.4226  2.1575 -1.1251
24196SOL    HW274030   7.328   7.119  10.977  0.8041  0.2319  0.4467
24197SOL     OW74031   2.261   6.140   8.552 -0.0526  0.1527  0.0300
24197SOL    HW174032   2.278   6.159   8.460 -0.4549  0.3122 -0.0132
24197SOL    HW274033   2.264   6.225   8.595  1.7235 -0.0886  0.4391
24198SOL     OW74034   3.266   0.455   1.194 -0.3691  0.2087  0.0803
24198SOL    HW174035   3.306   0.500   1.269  0.7362 -0.6021  0.0082
24198SOL    HW274036   3.322   0.378   1.180 -2.7563 -1.8114  0.8530
24199SOL     OW74037   6.793   6.208   1.555 -0.2533  0.1640  0.1925
24199SOL    HW174038   6.733   6.277   1.584 -1.0081 -0.3039 -0.2168
24199SOL    HW274039   6.744   6.127   1.567  0.5386 -0.2878  0.4423
24200SOL     OW74040   2.561   1.389  12.290 -0.1926  0.8237 -0.0627
24200SOL    HW174041   2.602   1.475  12.300 -1.2717  1.4339 -0.6571
24200SOL    HW274042   2.532   1.387  12.199  0.3524 -0.4259 -0.2245
24201SOL     OW74043   2.816   2.865   7.102 -0.9524  0.5602  0.9430
24201SOL    HW174044   2.763   2.864   7.182 -2.6493 -1.2753 -0.1195
24201SOL    HW274045   2.754   2.884   7.033  0.2631  0.8741 -0.0999
24202SOL     OW74046   6.375   6.893   4.322  0.0835  0.5358 -0.2871
24202SOL    HW174047   6.454   6.946   4.311  0.8773 -0.4528  0.4665
24202SOL    HW274048   6.308   6.956   4.349  1.0881  1.1318  0.9307
24203SOL     OW74049   6.909   5.448   0.381  0.0651 -0.0868  0.1276
24203SOL    HW174050   6.823   5.410   0.398  0.7319 -1.1346  1.4101
24203SOL    HW274051   6.938   5.480   0.466  1.4043 -0.8111 -0.0201
24204SOL     OW74052   5.942   1.432   0.483 -0.2656  0.4798 -0.5197
24204SOL    HW174053   5.853   1.468   0.488 -0.7375 -0.7581  1.4563
24204SOL    HW274054   5.930   1.338   0.490  1.2313  0.3528  1.7239
24205SOL     OW74055   7.395   1.581   8.792  0.2838 -0.3937 -0.0634
24205SOL    HW174056   7.388   1.487   8.809  1.2101 -0.0115  2.8174
24205SOL    HW274057   7.467   1.589   8.729 -2.1066 -1.7540 -3.2832
24206SOL     OW74058   5.768   5.913   7.060 -0.0219  0.0783 -0.4008
24206SOL    HW174059   5.841   5.879   7.112  0.5836 -0.5839 -1.6492
24206SOL    HW274060   5.802   5.993   7.019  0.2691 -0.6083 -1.5488
24207SOL     OW74061   0.322   6.463   6.633  0.1200 -0.0795  0.3606
24207SOL    HW174062   0.254   6.522   6.599 -1.6203  0.0444  3.6791
24207SOL    HW274063   0.341   6.496   6.721  1.9683 -2.1997  0.8521
24208SOL     OW74064   4.552   2.326   9.391 -0.4698  0.2335 -0.0005
24208SOL    HW174065   4.536   2.393   9.325  1.1252  1.3267  0.6658
24208SOL    HW274066   4.508   2.358   9.469  1.6421  1.4294  0.7945
24209SOL     OW74067   6.282   7.294  12.167  0.3000 -0.1318  0.1793
24209SOL    HW174068   6.229   7.266  12.241 -0.5214  0.4550 -0.1776
24209SOL    HW274069   6.301   7.386  12.184 -1.8462  0.6947 -1.4137
24210SOL     OW74070   7.306   1.968  11.075  0.0193 -0.5889  0.5327
24210SOL    HW174071   7.389   1.957  11.121 -0.3402  1.1461  1.7129
24210SOL    HW274072   7.240   1.935  11.137 -0.3940  0.9335  0.9449
24211SOL     OW74073   3.053   3.604   9.109  0.2807 -0.2208 -0.4009
24211SOL    HW174074   3.054   3.509   9.108 -0.9451 -0.2472  0.0154
24211SOL    HW274075   2.964   3.628   9.135  0.5976  1.0378 -0.3855
24212SOL     OW74076   2.847   0.042   3.811 -0.0029 -0.3974  0.1914
24212SOL    HW174077   2.784   0.071   3.877 -0.2366 -0.6164  0.0649
24212SOL    HW274078   2.865   0.121   3.759  0.9717  0.0318  1.1475
24213SOL     OW74079   3.307   1.818   6.129 -0.1578 -0.1255  0.1053
24213SOL    HW174080   3.356   1.878   6.185 -0.5385 -0.4040  0.7491
24213SOL    HW274081   3.215   1.837   6.149 -0.2851 -1.8927  1.3957
24214SOL     OW74082   5.808   0.029  10.817  0.3528  0.1126  0.0228
24214SOL    HW174083   5.898   0.060  10.807  1.0375 -2.0042 -0.7500
24214SOL    HW274084   5.774   0.021  10.728 -1.0877  2.0209  0.3123
24215SOL     OW74085   7.455   2.424   3.858 -0.2101  0.1730  0.0183
24215SOL    HW174086   7.430   2.505   3.814  0.8505  0.2594 -0.4762
24215SOL    HW274087   7.512   2.452   3.930  0.3550 -0.1272 -0.2971
24216SOL     OW74088   7.793   2.774   5.327  0.4317 -0.1184  0.2011
24216SOL    HW174089   7.719   2.718   5.353  0.3189  0.9893  2.5663
24216SOL    HW274090   7.834   2.799   5.410  2.7296  0.3406 -0.9807
24217SOL     OW74091   5.033   5.125   6.711  0.3032 -0.1686  0.1214
24217SOL    HW174092   5.111   5.156   6.757  0.5462  0.8301 -0.9164
24217SOL    HW274093   4.996   5.204   6.671  0.0413 -0.9641 -1.2852
24218SOL     OW74094   5.760   0.542  10.734 -0.8198  0.4872  0.1019
24218SOL    HW174095   5.680   0.496  10.708 -0.6115 -0.1045  0.4912
24218SOL    HW274096   5.803   0.565  10.652 -0.8549 -0.1455 -0.0952
24219SOL     OW74097   5.388   7.132   8.221  0.2816 -0.2501 -0.1921
24219SOL    HW174098   5.337   7.212   8.236 -2.3137 -1.6031 -1.1456
24219SOL    HW274099   5.393   7.124   8.126 -0.1673 -1.5660 -0.1279
24220SOL     OW74100   2.694   5.791   2.060  0.1003 -0.0360 -0.2440
24220SOL    HW174101   2.658   5.826   1.978 -1.5719  2.0471  1.2560
24220SOL    HW274102   2.645   5.710   2.074 -1.5196  0.9124 -0.0835
24221SOL     OW74103   4.393   7.263   6.260  0.4291 -0.0488 -0.1881
24221SOL    HW174104   4.313   7.281   6.211 -0.2713 -2.1452  0.1282
24221SOL    HW274105   4.463   7.268   6.194 -0.2786 -0.8832 -1.0269
24222SOL     OW74106   4.408   1.319   1.724  0.0905  0.0592  0.3293
24222SOL    HW174107   4.390   1.226   1.710 -1.2461  0.3780 -0.2310
24222SOL    HW274108   4.325   1.355   1.754  0.4122  1.1917 -0.0800
24223SOL     OW74109   5.694   1.829   9.033 -0.0396  0.3698  0.2529
24223SOL    HW174110   5.705   1.768   9.106 -1.5386 -1.2316 -0.7883
24223SOL    HW274111   5.764   1.805   8.971 -0.3917 -0.0452  0.0130
24224SOL     OW74112   4.018   1.377   2.859  0.1510  0.0767 -0.4748
24224SOL    HW174113   4.099   1.328   2.876  0.0336 -0.0930 -0.3934
24224SOL    HW274114   3.986   1.400   2.947  0.3596  0.5531 -0.5247
24225SOL     OW74115   6.014   6.067   2.880  0.2111 -0.1392  0.7654
24225SOL    HW174116   6.085   6.130   2.875 -0.0717  0.1584  0.4022
24225SOL    HW274117   5.941   6.116   2.918 -0.3806  0.1085 -0.6281
24226SOL     OW74118   2.212   0.593   7.046 -0.1631  0.0507 -0.2359
24226SOL    HW174119   2.195   0.516   6.993 -1.3364 -0.4458  0.8046
24226SOL    HW274120   2.147   0.589   7.116 -0.4950  2.1827 -0.3446
24227SOL     OW74121   5.799   4.588  10.680 -0.4682  0.1083  0.0995
24227SOL    HW174122   5.853   4.535  10.740 -0.7763 -1.0935 -0.6537
24227SOL    HW274123   5.854   4.600  10.603 -1.3506 -1.4390 -0.8290
24228SOL     OW74124   4.586   2.089   5.947 -0.1143  0.3551 -0.0062
24228SOL    HW174125   4.621   2.027   5.883 -1.0798  0.5005 -0.6835
24228SOL    HW274126   4.576   2.037   6.027 -1.1448 -0.4383 -0.6342
24229SOL     OW74127   4.766   2.209   6.807  0.6549 -0.3553 -0.6319
24229SOL    HW174128   4.780   2.241   6.718  1.3757  2.0271  0.2670
24229SOL    HW274129   4.731   2.284   6.855  1.8285 -1.0489  1.4777
24230SOL     OW74130   0.446   0.496   7.440  0.2292  0.4507 -0.7950
24230SOL    HW174131   0.501   0.418   7.430  1.2906  1.1507 -0.6699
24230SOL    HW274132   0.415   0.493   7.530 -0.3152 -0.1890 -1.0021
24231SOL     OW74133   3.292   3.698   7.467 -0.4981 -0.2429  0.2117
24231SOL    HW174134   3.368   3.742   7.505 -0.9642  0.9098 -0.1526
24231SOL    HW274135   3.330   3.638   7.402  0.0622  1.6120 -1.2718
24232SOL     OW74136   6.231   4.327   5.111 -0.5230 -0.8461 -0.0340
24232SOL    HW174137   6.308   4.274   5.087 -0.4227 -0.6407 -0.1702
24232SOL    HW274138   6.156   4.272   5.088 -0.4808 -2.6207  3.4787
24233SOL     OW74139   1.113   3.106   6.396  0.4250  0.1388 -0.2709
24233SOL    HW174140   1.061   3.073   6.323 -1.0185 -0.5208  1.0016
24233SOL    HW274141   1.161   3.030   6.428  1.1787  0.4619 -0.6082
24234SOL     OW74142   7.693   7.914   1.195 -0.2514  0.2988  0.4001
24234SOL    HW174143   7.728   7.827   1.216  0.6271  0.0869 -1.6036
24234SOL    HW274144   7.700   7.963   1.276  0.4296 -1.1321  1.2582
24235SOL     OW74145   0.860   2.008  10.032  0.1068 -0.1025 -0.2729
24235SOL    HW174146   0.767   1.990  10.020  0.4090 -2.2294  0.2116
24235SOL    HW274147   0.904   1.951   9.969  1.1205  0.1034  0.2185
24236SOL     OW74148   3.407   5.553   6.449  0.2898 -0.5327  0.0391
24236SOL    HW174149   3.477   5.488   6.444  1.0379  0.2638 -0.1794
24236SOL    HW274150   3.441   5.628   6.400 -0.1914  0.3488  1.0157
24237SOL     OW74151   6.613   5.412   2.655 -0.3179  0.4549  0.3523
24237SOL    HW174152   6.554   5.405   2.580 -1.7108 -2.1724  1.5409
24237SOL    HW274153   6.612   5.505   2.677 -1.9228  0.8987 -1.3273
24238SOL     OW74154   7.340   2.107   0.756  0.3093 -0.1589 -0.0881
24238SOL    HW174155   7.429   2.084   0.783 -0.2080 -1.1965  0.8560
24238SOL    HW274156   7.288   2.029   0.778 -1.0735  0.9222  0.6984
24239SOL     OW74157   3.420   7.324   4.412 -0.3443 -0.0446  0.1807
24239SOL    HW174158   3.481   7.342   4.340 -0.0391 -0.1021  0.4218
24239SOL    HW274159   3.378   7.409   4.429  1.8203  0.7915  1.9863
24240SOL     OW74160   4.399   2.284   4.382 -0.3371 -0.0714  0.2124
24240SOL    HW174161   4.351   2.251   4.307 -0.2966  0.0196  0.1450
24240SOL    HW274162   4.404   2.379   4.368 -0.6527 -0.0083  0.5197
24241SOL     OW74163   7.062   7.825  11.653 -0.0730  0.2512 -0.7604
24241SOL    HW174164   7.146   7.863  11.679  0.2650  0.0846 -1.5719
24241SOL    HW274165   7.001   7.898  11.652 -0.3216  0.1234  1.3441
24242SOL     OW74166   3.021   1.327   2.057 -0.1203  0.0338 -0.4438
24242SOL    HW174167   2.953   1.392   2.071  0.8090  0.6744  1.4180
24242SOL    HW274168   3.101   1.369   2.087  0.7373 -1.4652 -0.5418
24243SOL     OW74169   0.798   6.007   1.005  0.1480 -0.2797  0.3400
24243SOL    HW174170   0.722   6.054   0.972  1.0883  0.2622 -1.1406
24243SOL    HW274171   0.820   6.052   1.087 -1.2530 -0.6167  0.9291
24244SOL     OW74172   1.550   4.896   4.196 -0.0310 -0.1546  0.3910
24244SOL    HW174173   1.616   4.920   4.260  0.3564  1.5872 -0.6121
24244SOL    HW274174   1.492   4.972   4.191 -1.0957 -0.9702 -0.0171
24245SOL     OW74175   1.968   4.306  11.789  0.0333  0.2622 -0.0294
24245SOL    HW174176   2.018   4.327  11.869  0.1385 -1.2682  0.3283
24245SOL    HW274177   1.990   4.215  11.770 -3.3208 -0.8097  0.6923
24246SOL     OW74178   4.604   3.455  10.509 -0.2309  0.0616 -0.1871
24246SOL    HW174179   4.666   3.420  10.445 -0.5212 -0.8410  0.0008
24246SOL    HW274180   4.642   3.538  10.537  1.0312 -0.5976  0.1289
24247SOL     OW74181   3.786   1.407   2.295  0.1163 -0.1872  0.3138
24247SOL    HW174182   3.854   1.470   2.314  0.7973 -0.3896 -1.2438
24247SOL    HW274183   3.759   1.373   2.380  0.2592  1.6261  1.1208
24248SOL     OW74184   0.125   5.144   9.630  0.6571 -0.2606 -0.1442
24248SOL    HW174185   0.058   5.124   9.565 -0.9129 -0.0287  1.3405
24248SOL    HW274186   0.159   5.058   9.656 -0.6021 -0.5492  0.6287
24249SOL     OW74187   3.616   5.959   7.558 -0.3419 -0.1919  0.1062
24249SOL    HW174188   3.534   5.914   7.539 -0.6811 -0.2925  1.6456
24249SOL    HW274189   3.600   6.004   7.641  0.8684  0.5328 -0.0331
24250SOL     OW74190   5.135   2.599   7.597  0.0299 -0.1316  0.0949
24250SOL    HW174191   5.174   2.592   7.510  0.7884 -1.4185  0.5075
24250SOL    HW274192   5.196   2.553   7.654 -0.0129  1.4402  1.4725
24251SOL     OW74193   4.116   5.918   0.236 -0.0653  0.1149  0.4970
24251SOL    HW174194   4.141   6.009   0.225  0.2605  0.0948  1.0774
24251SOL    HW274195   4.143   5.895   0.325 -1.3276 -0.1669  0.8324
24252SOL     OW74196   5.674   1.588   4.204 -0.1698 -0.0598 -0.3573
24252SOL    HW174197   5.740   1.630   4.149  0.3422  0.2777  0.4917
24252SOL    HW274198   5.639   1.517   4.151  1.3466 -0.6528 -0.5903
24253SOL     OW74199   0.236   3.423  10.732 -0.4515 -0.3201 -0.2414
24253SOL    HW174200   0.162   3.368  10.705 -1.5869  0.5612  0.9105
24253SOL    HW274201   0.223   3.506  10.685  0.1859 -0.3814 -0.5327
24254SOL     OW74202   3.471   2.318   8.005  0.2544  0.1316 -0.4852
24254SOL    HW174203   3.463   2.362   7.920 -0.4001  1.0730  0.0394
24254SOL    HW274204   3.393   2.264   8.012  1.3297 -1.6086 -1.3715
24255SOL     OW74205   0.160   0.762   8.958 -0.4368  0.4124  0.0444
24255SOL    HW174206   0.174   0.668   8.941 -2.6868 -0.1516  0.8676
24255SOL    HW274207   0.183   0.773   9.050 -0.7789  0.5157  0.1186
24256SOL     OW74208   7.611   7.796   7.840  0.3448  0.0854 -0.1111
24256SOL    HW174209   7.625   7.762   7.751 -1.4802 -0.5852 -0.1850
24256SOL    HW274210   7.673   7.869   7.847  0.2724  0.4035 -2.0707
24257SOL     OW74211   3.230   2.626   3.712  0.3151  0.0401 -0.2969
24257SOL    HW174212   3.200   2.716   3.724 -2.3395 -0.7631 -0.2716
24257SOL    HW274213   3.243   2.618   3.617 -2.3415 -0.2916 -0.7114
24258SOL     OW74214   4.921   5.487   7.633  0.0902 -0.4255  0.0675
24258SOL    HW174215   5.003   5.510   7.590 -0.1400 -0.8830 -0.6220
24258SOL    HW274216   4.948   5.446   7.715  0.5290  0.4322  0.3713
24259SOL     OW74217   3.173   1.513   5.239  0.0981  0.2190 -0.0546
24259SOL    HW174218   3.259   1.507   5.197 -0.6275 -0.6106 -1.4849
24259SOL    HW274219   3.129   1.584   5.192 -0.0304  0.5896  0.6209
24260SOL     OW74220   2.767   6.447  11.066 -0.4541 -0.2473 -0.0240
24260SOL    HW174221   2.832   6.483  11.005 -0.8421 -0.6907 -0.6985
24260SOL    HW274222   2.683   6.481  11.035 -0.7223 -0.9969 -0.1268
24261SOL     OW74223   1.862   4.703   3.167 -0.1847  0.6639 -0.0917
24261SOL    HW174224   1.879   4.639   3.236 -0.5801  1.5521  0.8634
24261SOL    HW274225   1.805   4.658   3.106 -2.2979  0.7245  1.6938
24262SOL     OW74226   0.476   2.268   9.235 -0.0477 -0.3251  0.1602
24262SOL    HW174227   0.484   2.202   9.166 -1.2116 -0.2588 -0.0639
24262SOL    HW274228   0.551   2.253   9.292  2.0808  0.8393 -2.1445
24263SOL     OW74229   3.712   6.479  10.296  0.9040 -0.3139  0.1838
24263SOL    HW174230   3.687   6.419  10.225  1.2183 -0.2951  0.0579
24263SOL    HW274231   3.666   6.561  10.275  0.1582 -0.6222  0.5681
24264SOL     OW74232   7.137   7.835   6.483 -0.4546  0.1585 -0.2462
24264SOL    HW174233   7.160   7.916   6.529  0.4307  1.0177 -2.0715
24264SOL    HW274234   7.147   7.766   6.549 -0.8105  1.4651  1.2409
24265SOL     OW74235   1.638   4.460   2.779  0.5620  0.5633 -0.1532
24265SOL    HW174236   1.560   4.407   2.768 -0.2012  1.6792 -0.3013
24265SOL    HW274237   1.700   4.404   2.826 -0.4652 -0.1992  0.3085
24266SOL     OW74238   5.237   2.401   0.004  0.4641 -0.3977  0.2383
24266SOL    HW174239   5.143   2.412   0.014  0.6863  0.9439  1.0866
24266SOL    HW274240   5.246   2.325  -0.053 -1.1436  0.0138 -0.6444
24267SOL     OW74241   5.119   4.295   3.055 -0.0968  0.3093  0.0019
24267SOL    HW174242   5.171   4.238   2.998 -0.4985  0.1491 -0.2118
24267SOL    HW274243   5.053   4.237   3.094 -0.5687  0.6391 -0.2883
24268SOL     OW74244   1.584   0.326   9.638 -0.2349  0.2942  0.3800
24268SOL    HW174245   1.548   0.270   9.706  0.1006  1.0465  1.2011
24268SOL    HW274246   1.570   0.415   9.670  0.0805  0.6589 -0.4596
24269SOL     OW74247   3.441   7.838   1.307 -0.2929 -0.8245  0.0711
24269SOL    HW174248   3.500   7.906   1.273 -2.9701  0.2907 -2.8079
24269SOL    HW274249   3.492   7.757   1.301  1.6716  0.3459 -0.1171
24270SOL     OW74250   1.247   5.314   6.691  0.6067 -0.7827  0.7745
24270SOL    HW174251   1.271   5.239   6.638  3.8254  0.0202  0.9097
24270SOL    HW274252   1.289   5.389   6.648 -2.1005  0.9469  0.8930
24271SOL     OW74253   0.100   4.878   2.195  0.0655  0.3778 -0.4667
24271SOL    HW174254   0.064   4.881   2.106  1.4319  1.4865 -1.0175
24271SOL    HW274255   0.193   4.896   2.183  0.2032  0.9189  1.2376
24272SOL     OW74256   0.266   6.309   9.029 -0.0227  0.5932  0.2887
24272SOL    HW174257   0.288   6.396   9.063  5.1635  0.7740 -2.5310
24272SOL    HW274258   0.228   6.326   8.943  0.6024  0.0687 -0.0922
24273SOL     OW74259   6.243   3.877   3.914  0.0626 -0.5400  0.4048
24273SOL    HW174260   6.158   3.921   3.915 -0.9241 -1.6514 -4.6351
24273SOL    HW274261   6.223   3.786   3.937  0.1898 -0.5012  0.6751
24274SOL     OW74262   5.461   2.680   7.291 -0.3283 -0.1174 -0.1850
24274SOL    HW174263   5.369   2.656   7.301  0.0376 -1.3992  0.3377
24274SOL    HW274264   5.509   2.597   7.298  1.0508  0.7744  2.0054
24275SOL     OW74265   6.724   2.730   9.564  0.1568 -0.1550  0.2653
24275SOL    HW174266   6.638   2.754   9.528 -0.2516 -1.5082  0.2981
24275SOL    HW274267   6.783   2.797   9.531 -1.0404  1.2385  0.8386
24276SOL     OW74268   4.735   0.066   5.739  0.0221 -0.0586 -0.2895
24276SOL    HW174269   4.791   0.116   5.798 -1.1788  1.5253 -0.4053
24276SOL    HW274270   4.750  -0.026   5.763  1.7629  0.3779  0.4349
24277SOL     OW74271   6.196   1.342   6.189  0.5231  0.2968 -0.3688
24277SOL    HW174272   6.166   1.379   6.106  0.6063  0.0379 -0.5184
24277SOL    HW274273   6.133   1.272   6.208  0.4109  0.4640 -0.1311
24278SOL     OW74274   6.383   0.024   0.146 -0.4235  0.1347 -0.5084
24278SOL    HW174275   6.356   0.092   0.207 -2.3802 -1.2682  0.3141
24278SOL    HW274276   6.329   0.037   0.068  1.3246  1.2772 -1.6090
24279SOL     OW74277   6.294   1.703   7.606 -0.4280 -0.6440 -0.2051
24279SOL    HW174278   6.311   1.646   7.681  0.9094  0.1504  0.1424
24279SOL    HW274279   6.347   1.782   7.624 -2.1225  0.6655 -0.7122
24280SOL     OW74280   7.267   6.846   7.776 -0.7752  0.5595 -0.4569
24280SOL    HW174281   7.180   6.879   7.797 -1.2331  0.3538 -1.9379
24280SOL    HW274282   7.325   6.919   7.797 -1.4355  1.1461 -0.6372
24281SOL     OW74283   3.486   1.617   4.370 -0.0759  0.0106  0.1772
24281SOL    HW174284   3.513   1.634   4.280  0.6468  0.5964  0.4984
24281SOL    HW274285   3.391   1.604   4.364  0.0479 -0.5432 -0.7462
24282SOL     OW74286   4.850   3.211   2.098  0.0263 -0.1022 -0.0382
24282SOL    HW174287   4.822   3.142   2.038  0.1651 -0.6741  0.5416
24282SOL    HW274288   4.815   3.185   2.183 -0.0693  0.6372  0.1575
24283SOL     OW74289   5.841   2.080   9.080  0.5797  0.1043  0.1952
24283SOL    HW174290   5.766   2.024   9.059  0.7812  0.4179 -1.5291
24283SOL    HW274291   5.917   2.023   9.071  0.5718 -0.1825  1.8203
24284SOL     OW74292   5.909   5.627   7.787 -0.1544  0.5099 -0.5120
24284SOL    HW174293   5.884   5.662   7.701  0.4860  2.5410  0.0848
24284SOL    HW274294   5.897   5.700   7.848 -0.4319 -0.8407  1.1214
24285SOL     OW74295   0.375   2.700   8.236 -0.0619 -0.4015 -0.4458
24285SOL    HW174296   0.352   2.669   8.148 -0.7667  0.5214 -0.6059
24285SOL    HW274297   0.335   2.637   8.295 -3.8525  1.4709 -0.6874
24286SOL     OW74298   5.655   4.367   9.860 -0.7840 -0.1659  0.0835
24286SOL    HW174299   5.725   4.340   9.920 -0.4883  2.0739  0.8627
24286SOL    HW274300   5.700   4.384   9.777 -0.5462  0.4054  0.3276
24287SOL     OW74301   0.462   6.203   2.659 -0.1023  0.1555 -0.5109
24287SOL    HW174302   0.539   6.190   2.604 -1.4710 -1.2375 -2.2031
24287SOL    HW274303   0.475   6.144   2.733  0.4472 -0.0591 -0.7730
24288SOL     OW74304   5.364   0.112   0.188 -0.6465  0.3967  0.3135
24288SOL    HW174305   5.302   0.152   0.249  0.9239 -1.3051  3.2318
24288SOL    HW274306   5.449   0.119   0.232  0.5429 -1.1812 -1.5717
24289SOL     OW74307   3.038   0.168   1.660 -0.2719  0.0800 -0.6479
24289SOL    HW174308   3.032   0.204   1.749  0.1293  0.3073 -0.7111
24289SOL    HW274309   2.998   0.081   1.667 -2.9910  1.1868 -0.8841
24290SOL     OW74310   1.417   1.638   7.953 -0.0961  0.3394 -0.2572
24290SOL    HW174311   1.455   1.597   8.030 -1.4398 -2.3680 -0.9308
24290SOL    HW274312   1.481   1.706   7.928  1.5660 -0.3895  1.7395
24291SOL     OW74313   2.727   7.197   4.059 -0.2584  0.3584 -0.4037
24291SOL    HW174314   2.647   7.148   4.038  0.5399 -1.1431 -0.0608
24291SOL    HW274315   2.730   7.198   4.155  2.3113 -3.4956 -0.2381
24292SOL     OW74316   1.468   1.033   9.181  0.6874 -0.4610 -0.3589
24292SOL    HW174317   1.431   0.983   9.254  0.2184 -2.4050 -1.8227
24292SOL    HW274318   1.408   1.106   9.169  0.0227 -0.8753  0.3343
24293SOL     OW74319   6.086   6.085   3.516  0.2332 -0.4351  0.2849
24293SOL    HW174320   6.149   6.050   3.454 -0.3472 -0.2469 -0.4251
24293SOL    HW274321   6.139   6.122   3.586  0.9535  0.7017 -0.8210
24294SOL     OW74322   4.519   0.536   7.764  0.3483  0.3255 -0.1329
24294SOL    HW174323   4.462   0.490   7.702 -0.6244  1.4394 -0.1004
24294SOL    HW274324   4.469   0.614   7.790  1.7793  1.2219  0.0885
24295SOL     OW74325   5.139   2.857  11.362 -0.5394 -0.1271 -0.1010
24295SOL    HW174326   5.076   2.795  11.325  0.9659 -0.9377 -1.4204
24295SOL    HW274327   5.222   2.835  11.321  0.3757  1.7534  0.5962
24296SOL     OW74328   5.044   7.347  11.519  0.1546 -0.3447  0.0086
24296SOL    HW174329   5.038   7.430  11.566 -0.2129 -0.6558  0.5157
24296SOL    HW274330   4.968   7.348  11.460  0.7598  0.1629 -0.7930
24297SOL     OW74331   2.717   1.977   6.485  0.4937 -0.0401 -0.6137
24297SOL    HW174332   2.784   1.924   6.529  0.7125  1.4748  0.9918
24297SOL    HW274333   2.642   1.974   6.544  0.4516  1.2635 -0.5791
24298SOL     OW74334   2.514   5.196   3.816 -0.5902  0.2351  0.5968
24298SOL    HW174335   2.546   5.119   3.770 -1.3031  0.2486  0.0599
24298SOL    HW274336   2.472   5.162   3.895  0.3921  0.1918  1.1198
24299SOL     OW74337   0.137   7.218   1.546  0.2164 -0.3460 -0.0277
24299SOL    HW174338   0.102   7.137   1.508 -0.5115  0.1631 -0.4747
24299SOL    HW274339   0.108   7.215   1.637 -1.0538  0.0698 -0.3914
24300SOL     OW74340   1.857   6.747   4.434  0.8576 -0.1016 -0.2635
24300SOL    HW174341   1.840   6.842   4.435  1.4507  0.1204  3.7735
24300SOL    HW274342   1.951   6.740   4.422  0.9086 -0.1114  0.1204
24301SOL     OW74343   0.235   5.239   8.036 -0.2674  0.0050  0.6596
24301SOL    HW174344   0.184   5.198   7.966  0.0237  1.1635 -0.2663
24301SOL    HW274345   0.280   5.166   8.079 -0.9096 -0.7903  0.0102
24302SOL     OW74346   6.560   4.836  11.222 -0.2144 -0.6492 -0.1316
24302SOL    HW174347   6.468   4.839  11.194 -1.3219 -0.0351  3.0220
24302SOL    HW274348   6.588   4.928  11.221  0.2630 -0.7964 -0.7352
24303SOL     OW74349   1.980   7.885  10.374  0.0796  0.2058  0.3075
24303SOL    HW174350   2.061   7.858  10.331 -0.2631 -0.0068 -0.2126
24303SOL    HW274351   1.946   7.955  10.319  0.2515  0.7672  0.8973
24304SOL     OW74352   7.606   6.495  10.761  0.0170  0.4019 -0.1008
24304SOL    HW174353   7.678   6.467  10.704  0.8808  1.4570  0.4283
24304SOL    HW274354   7.543   6.534  10.702 -0.5283 -1.2439 -0.6723
24305SOL     OW74355   0.706   1.960   9.175 -0.0814  0.3355 -0.1969
24305SOL    HW174356   0.796   1.948   9.146 -0.2762  1.5919 -1.4336
24305SOL    HW274357   0.708   2.044   9.222 -0.3689 -0.2531  0.9026
24306SOL     OW74358   7.617   2.574   1.596 -0.1142 -0.3347 -0.0996
24306SOL    HW174359   7.658   2.629   1.663 -0.3736 -0.7039  0.3674
24306SOL    HW274360   7.666   2.594   1.515 -0.6432  1.0832 -0.0894
24307SOL     OW74361   3.915   6.251  12.416 -0.0878  0.2992  0.3238
24307SOL    HW174362   3.959   6.327  12.378  2.3090  0.1453  2.5039
24307SOL    HW274363   3.914   6.186  12.346  0.2488  1.4447 -0.7723
24308SOL     OW74364   0.714   1.095   9.481  0.1717 -0.4662 -0.3677
24308SOL    HW174365   0.763   1.159   9.534 -0.7042 -0.9092  1.0365
24308SOL    HW274366   0.635   1.077   9.532 -0.8717 -0.7072 -1.9964
24309SOL     OW74367   1.699   6.845   1.868 -0.2516  0.1437  0.1024
24309SOL    HW174368   1.618   6.809   1.903  0.3327  0.3045  1.7122
24309SOL    HW274369   1.718   6.920   1.924  1.6579 -0.6473  0.6067
24310SOL     OW74370   4.999   3.019   2.347 -0.0487  0.1360 -0.7181
24310SOL    HW174371   4.994   2.957   2.419  1.2532  0.9230  0.0935
24310SOL    HW274372   4.910   3.052   2.338  0.2458  2.3515  2.6961
24311SOL     OW74373   4.832   1.452   4.039 -0.1288 -0.1409 -0.1829
24311SOL    HW174374   4.782   1.415   4.112 -0.0907 -2.3027 -1.1500
24311SOL    HW274375   4.774   1.518   4.001 -0.6894  0.0575  0.9760
24312SOL     OW74376   0.339   3.552   6.408  0.2456 -0.2607 -0.0379
24312SOL    HW174377   0.402   3.602   6.460  1.0189 -2.0449  0.8165
24312SOL    HW274378   0.301   3.616   6.348  0.3509  1.5801  1.7705
24313SOL     OW74379   7.471   3.170   8.784  0.2024 -0.1364 -0.5394
24313SOL    HW174380   7.388   3.152   8.828 -0.8599  0.1072 -2.3485
24313SOL    HW274381   7.535   3.175   8.855 -1.5048  0.7559  1.0281
24314SOL     OW74382   4.447   3.058   4.560 -0.2475 -0.1994  0.1435
24314SOL    HW174383   4.427   3.147   4.588  1.7978  0.8798 -1.6094
24314SOL    HW274384   4.403   3.049   4.475  0.0403 -0.6497  0.0389
24315SOL     OW74385   7.933   5.023  10.351  0.1094  0.0898 -0.1472
24315SOL    HW174386   7.993   4.949  10.352  0.5727  0.4691  0.3469
24315SOL    HW274387   7.938   5.060  10.439 -2.3555 -1.0532  0.5469
24316SOL     OW74388   5.385   2.570   4.392  0.4240 -0.1826  0.5243
24316SOL    HW174389   5.411   2.619   4.470  1.8250  0.6942 -0.4592
24316SOL    HW274390   5.442   2.493   4.393  2.9035  1.4781 -1.3462
24317SOL     OW74391   5.568   4.955   0.694 -0.6782 -0.2226 -0.4920
24317SOL    HW174392   5.579   4.945   0.789  1.7181  0.1101 -0.6772
24317SOL    HW274393   5.641   5.010   0.667 -2.1122  0.9046 -2.3758
24318SOL     OW74394   1.248   3.523   4.606 -0.1037  0.4031  0.0687
24318SOL    HW174395   1.213   3.550   4.691 -0.1814 -0.2844  0.2620
24318SOL    HW274396   1.274   3.431   4.619 -0.5671  0.1445 -0.7898
24319SOL     OW74397   1.774   4.906  11.684 -0.4966 -0.4276 -0.6862
24319SOL    HW174398   1.832   4.836  11.715 -0.3929  0.6976  1.8943
24319SOL    HW274399   1.832   4.966  11.638 -0.4074 -1.4374 -1.9569
24320SOL     OW74400   7.911   0.896   0.947 -0.3377 -0.7671 -0.3518
24320SOL    HW174401   7.899   0.801   0.948  1.0351 -0.9795  1.4441
24320SOL    HW274402   8.004   0.908   0.966 -0.8825  0.9313  1.7039
24321SOL     OW74403   2.468   7.229   2.719 -0.2257  0.0836 -0.0942
24321SOL    HW174404   2.438   7.197   2.805  2.2166 -0.5767  0.5865
24321SOL    HW274405   2.495   7.150   2.673  0.6560  0.6519 -0.5620
24322SOL     OW74406   7.609   5.468   3.844  0.1087  0.0965 -0.1227
24322SOL    HW174407   7.614   5.459   3.749  1.1224 -0.0825 -0.0637
24322SOL    HW274408   7.646   5.554   3.861 -0.6482  0.3876  0.0668
24323SOL     OW74409   3.494   4.421   1.155  0.7499  0.3924  0.7526
24323SOL    HW174410   3.538   4.475   1.090  2.6638 -0.8706  0.9184
24323SOL    HW274411   3.550   4.344   1.165 -2.0494 -1.9389  0.1455
24324SOL     OW74412   3.628   1.330   6.289  0.0184  0.3015  0.1917
24324SOL    HW174413   3.555   1.324   6.351  0.5254  1.0810  0.8881
24324SOL    HW274414   3.586   1.350   6.205 -0.6612 -0.5418  0.3192
24325SOL     OW74415   6.695   7.252   7.944 -0.4255 -0.3806  0.0602
24325SOL    HW174416   6.637   7.182   7.914 -0.1888 -0.3758 -0.4178
24325SOL    HW274417   6.763   7.257   7.877  0.9753 -1.4089  1.3198
24326SOL     OW74418   0.488   1.834   2.700 -0.0258  0.4456  0.2900
24326SOL    HW174419   0.551   1.904   2.683  1.0423 -0.8689 -1.6060
24326SOL    HW274420   0.456   1.808   2.614  1.1105 -2.6373  0.6434
24327SOL     OW74421   3.546   2.279   2.859 -0.0376  0.2382  0.5498
24327SOL    HW174422   3.605   2.347   2.893  1.0802  0.1251 -1.0359
24327SOL    HW274423   3.597   2.198   2.865 -0.4842 -0.0657  0.2543
24328SOL     OW74424   7.814   0.398  11.568  0.0551 -0.2807  0.5978
24328SOL    HW174425   7.843   0.361  11.651 -1.6631  0.8342  1.7808
24328SOL    HW274426   7.841   0.490  11.573 -1.7006  0.2700  0.8360
24329SOL     OW74427   6.474   7.026   9.643 -0.2591  0.0652 -0.1685
24329SOL    HW174428   6.403   7.087   9.625 -0.8967 -0.7272 -0.4030
24329SOL    HW274429   6.502   6.995   9.557 -0.5206 -0.6052 -0.0230
24330SOL     OW74430   6.577   3.683   0.848  0.1487  0.0271  0.1014
24330SOL    HW174431   6.604   3.694   0.757 -0.5075  1.8459  0.0858
24330SOL    HW274432   6.602   3.766   0.890  0.7816 -0.9134  1.6777
24331SOL     OW74433   3.817   3.300   5.924 -0.6638 -0.1012  0.3219
24331SOL    HW174434   3.744   3.249   5.888 -0.1979 -0.6380  0.1291
24331SOL    HW274435   3.778   3.384   5.947 -1.3801 -0.4293  0.3507
24332SOL     OW74436   5.938   3.830  10.586  0.2254 -0.3572 -0.3258
24332SOL    HW174437   5.872   3.857  10.522 -0.5431  0.9691  0.9886
24332SOL    HW274438   5.904   3.860  10.670  2.0009 -0.6138  0.5175
24333SOL     OW74439   7.784   1.484   6.864 -0.0808  0.8380  0.2570
24333SOL    HW174440   7.876   1.505   6.850  0.3200 -0.2292  1.1737
24333SOL    HW274441   7.748   1.562   6.907  0.1916  1.5423 -0.7292
24334SOL     OW74442   2.905   2.272  10.559  0.7580 -0.3523  0.4259
24334SOL    HW174443   2.876   2.232  10.476  0.9720  1.6631 -0.6924
24334SOL    HW274444   2.966   2.341  10.532  0.1726  0.9339  2.2168
24335SOL     OW74445   0.237   1.932  10.494 -0.1508  0.0086  0.0372
24335SOL    HW174446   0.159   1.986  10.483 -1.5391 -1.8913  0.0730
24335SOL    HW274447   0.285   1.943  10.412 -1.2626  0.0017 -0.6380
24336SOL     OW74448   2.349   5.813   3.599 -0.8279 -0.1891  0.0108
24336SOL    HW174449   2.438   5.785   3.620 -0.1948  0.9659 -0.9592
24336SOL    HW274450   2.323   5.757   3.526 -0.5766 -0.0114 -0.2206
24337SOL     OW74451   5.586   0.102   0.756 -0.4418  0.3714  0.1147
24337SOL    HW174452   5.582   0.019   0.708  0.5464 -1.8507  3.5150
24337SOL    HW274453   5.524   0.091   0.828  0.9285  1.8700  1.6074
24338SOL     OW74454   5.268   4.848   6.960  0.5589 -0.0127 -0.5204
24338SOL    HW174455   5.183   4.892   6.966  1.3551  1.6432 -0.8962
24338SOL    HW274456   5.298   4.865   6.871  0.9980 -1.1802 -0.6131
24339SOL     OW74457   6.048   6.331   2.580 -0.0315  0.0267 -0.2744
24339SOL    HW174458   6.084   6.417   2.605  0.6285  0.2421 -1.8793
24339SOL    HW274459   6.001   6.347   2.499  0.9489 -1.2887 -1.1552
24340SOL     OW74460   5.914   0.442   3.475 -0.0784 -0.4863 -0.0292
24340SOL    HW174461   5.874   0.435   3.388  0.7295 -0.4756 -0.4139
24340SOL    HW274462   5.958   0.357   3.488  0.3361 -0.2566  0.0929
24341SOL     OW74463   5.609   7.386   6.070  0.4820 -0.3360  0.0985
24341SOL    HW174464   5.655   7.335   6.003 -0.0091 -0.0652 -0.4568
24341SOL    HW274465   5.525   7.341   6.080  0.2125  0.1171 -0.0969
24342SOL     OW74466   5.955   4.157   4.811  0.0765  0.1298 -0.1976
24342SOL    HW174467   5.868   4.119   4.821  0.0932 -0.1041 -0.8530
24342SOL    HW274468   5.939   4.245   4.777  0.0360  0.7417  1.3714
24343SOL     OW74469   5.806   6.004   6.606 -0.1307 -0.1484 -0.5274
24343SOL    HW174470   5.813   5.911   6.630  0.7391 -0.1561 -0.7499
24343SOL    HW274471   5.720   6.012   6.564 -0.1802 -0.8764 -0.5754
24344SOL     OW74472   4.161   4.427  11.549  0.1886  0.6779  0.3640
24344SOL    HW174473   4.145   4.336  11.573  0.7342  0.3014 -0.6297
24344SOL    HW274474   4.197   4.467  11.627  2.7275 -0.7111  0.0148
24345SOL     OW74475   5.933   7.619   3.676 -0.1943 -0.2988 -0.6392
24345SOL    HW174476   5.911   7.606   3.583 -1.3344 -0.6417 -0.3452
24345SOL    HW274477   5.979   7.539   3.701  2.4512  0.8401 -1.5211
24346SOL     OW74478   7.411   6.834  11.867 -0.7513  0.5428  0.0769
24346SOL    HW174479   7.469   6.798  11.933 -1.2533 -0.6231 -0.0943
24346SOL    HW274480   7.470   6.878  11.805  0.0468 -1.1642 -0.4455
24347SOL     OW74481   1.523   1.150  10.542 -0.4355  0.3190 -0.4148
24347SOL    HW174482   1.499   1.166  10.633 -0.2829  2.7187 -0.7311
24347SOL    HW274483   1.461   1.084  10.512 -1.2583  0.3614  1.0955
24348SOL     OW74484   4.367   4.527   8.168 -0.0081 -0.3509  0.8677
24348SOL    HW174485   4.461   4.529   8.185  0.1421 -0.8276  0.1609
24348SOL    HW274486   4.339   4.618   8.179  1.2471  0.6207 -2.4672
24349SOL     OW74487   3.058   4.350   7.083  0.3116 -0.3149  0.2501
24349SOL    HW174488   3.060   4.261   7.117  1.3949  0.1937  1.5954
24349SOL    HW274489   3.028   4.404   7.157  0.5358  0.5532 -0.2731
24350SOL     OW74490   4.019   3.691  11.216 -0.3758  0.4590 -0.2964
24350SOL    HW174491   3.955   3.728  11.277 -0.9235  1.0968 -1.2313
24350SOL    HW274492   4.017   3.750  11.141 -1.2275 -1.4285 -1.8305
24351SOL     OW74493   1.741   3.741   8.242 -0.2377  0.0683 -0.1415
24351SOL    HW174494   1.821   3.790   8.261  1.0445 -1.8915 -0.1823
24351SOL    HW274495   1.728   3.686   8.320 -1.1168 -0.1762 -0.4529
24352SOL     OW74496   2.625   3.247   7.268  0.8220  0.2746 -0.3598
24352SOL    HW174497   2.553   3.192   7.239  1.1819  0.4211 -1.5684
24352SOL    HW274498   2.584   3.314   7.323  0.2788 -0.6794  0.4388
24353SOL     OW74499   1.348   5.947   9.213  0.1021 -0.0179  0.0260
24353SOL    HW174500   1.277   5.966   9.274  1.4728  0.1752  1.6609
24353SOL    HW274501   1.428   5.968   9.263  1.3461 -1.2986 -1.3218
24354SOL     OW74502   7.237   1.683   8.076  0.2759  0.2510  0.0660
24354SOL    HW174503   7.330   1.695   8.059  0.5398  0.4511  1.5136
24354SOL    HW274504   7.207   1.768   8.108 -0.4318  0.2247 -0.5034
24355SOL     OW74505   7.605   4.656  11.340  0.1953 -0.4940  0.0240
24355SOL    HW174506   7.521   4.615  11.318  1.3299 -1.7137 -2.3329
24355SOL    HW274507   7.619   4.720  11.270  2.4758 -2.2641 -1.2522
24356SOL     OW74508   5.337   1.760   0.687 -0.1513  0.2070 -0.6348
24356SOL    HW174509   5.293   1.748   0.771  1.0013  0.0685 -0.0421
24356SOL    HW274510   5.416   1.707   0.693 -1.2081 -1.8025 -2.7120
24357SOL     OW74511   1.536   2.700  11.798 -0.0832 -0.3969  0.5197
24357SOL    HW174512   1.608   2.684  11.737 -1.5480  0.5389 -1.5475
24357SOL    HW274513   1.539   2.794  11.814 -0.8644 -0.3425  0.3800
24358SOL     OW74514   6.842   4.958   4.667 -0.2071 -0.4563  0.1406
24358SOL    HW174515   6.834   4.991   4.756 -0.6089  0.4065 -0.2052
24358SOL    HW274516   6.900   4.882   4.675  0.4534  0.1134  1.0123
24359SOL     OW74517   4.281   3.573   4.767  0.2777  0.0311  0.4648
24359SOL    HW174518   4.244   3.639   4.708  1.4473  0.5693  0.3031
24359SOL    HW274519   4.369   3.558   4.734  0.4401 -0.7421  1.2200
24360SOL     OW74520   5.820   3.133   9.526 -0.3412  0.0584 -0.6556
24360SOL    HW174521   5.859   3.181   9.599  1.1987  0.1039 -1.4722
24360SOL    HW274522   5.881   3.061   9.509 -2.5641 -2.2737  0.5201
24361SOL     OW74523   6.469   2.081   1.446 -0.0048  0.3875 -0.1644
24361SOL    HW174524   6.525   2.014   1.484  0.3263  1.1187  0.6780
24361SOL    HW274525   6.526   2.128   1.385 -0.4926 -0.6829 -1.4817
24362SOL     OW74526   1.881   7.810   5.965  0.1988 -0.1428  0.1689
24362SOL    HW174527   1.838   7.844   5.887 -0.2067  0.6040  0.6957
24362SOL    HW274528   1.826   7.738   5.995 -0.1860  0.1997  0.3035
24363SOL     OW74529   3.092   3.408  10.893  0.1651  0.2376 -0.1632
24363SOL    HW174530   2.998   3.423  10.904  0.2480 -0.0950  1.1138
24363SOL    HW274531   3.105   3.406  10.798 -1.3739 -1.2010 -0.3921
24364SOL     OW74532   5.364   4.787   7.882 -0.2541 -0.2207 -0.3070
24364SOL    HW174533   5.285   4.833   7.856  1.1187  1.4518 -1.7390
24364SOL    HW274534   5.340   4.694   7.878 -1.9940  0.2284 -1.1636
24365SOL     OW74535   6.306   4.816  11.125 -0.2600  0.4386  0.0650
24365SOL    HW174536   6.227   4.805  11.178  0.0465 -0.0495  0.4261
24365SOL    HW274537   6.274   4.854  11.043 -0.8563  0.3522  0.2490
24366SOL     OW74538   7.605   6.643   7.947  0.4578  0.2478  0.5513
24366SOL    HW174539   7.642   6.729   7.926 -1.0459  0.7711 -0.1143
24366SOL    HW274540   7.675   6.581   7.926  1.5178  1.2901  0.9048
24367SOL     OW74541   4.021   5.526   8.325 -0.3513 -0.0855 -0.6949
24367SOL    HW174542   3.975   5.465   8.384  0.4037  0.4741  0.5131
24367SOL    HW274543   4.105   5.484   8.307  0.1102  0.5046  0.0213
24368SOL     OW74544   2.007   6.668   2.748 -0.0829  0.4828  0.1710
24368SOL    HW174545   1.913   6.671   2.765 -0.2457 -1.9377 -0.0749
24368SOL    HW274546   2.044   6.727   2.815 -1.7132  1.2593  0.4491
24369SOL     OW74547   2.751   0.049   3.468  0.7937 -0.0740 -0.3505
24369SOL    HW174548   2.695   0.079   3.540 -0.7487 -2.6530 -0.3061
24369SOL    HW274549   2.712   0.087   3.389  1.1098  0.9462 -0.0190
24370SOL     OW74550   7.795   6.650   0.035 -0.3994  0.3384 -0.2645
24370SOL    HW174551   7.748   6.572   0.065 -0.7621  0.5341 -0.3145
24370SOL    HW274552   7.768   6.660  -0.056 -0.4763  0.6126 -0.2123
24371SOL     OW74553   3.235   3.631   4.520 -0.0063  0.1824  0.0232
24371SOL    HW174554   3.233   3.555   4.578  0.9415  0.3705  0.3180
24371SOL    HW274555   3.327   3.640   4.495  0.2208  2.1875  1.2992
24372SOL     OW74556   2.766   4.498   9.458  0.0559 -0.2723  0.1284
24372SOL    HW174557   2.733   4.554   9.388  0.4861 -1.4308 -1.0374
24372SOL    HW274558   2.776   4.557   9.533 -1.2728  0.8106 -0.5065
24373SOL     OW74559   7.873   2.547   6.176  0.0444 -0.5843  0.2721
24373SOL    HW174560   7.918   2.478   6.128 -1.0872 -2.6350  1.9768
24373SOL    HW274561   7.780   2.530   6.160 -0.2571  0.3928  0.9405
24374SOL     OW74562   5.709   3.421   2.481  0.3324 -0.0169 -0.5012
24374SOL    HW174563   5.709   3.350   2.545  1.5576  0.1362 -0.3040
24374SOL    HW274564   5.638   3.479   2.509  0.9275  0.1161  0.8066
24375SOL     OW74565   6.107   5.491   1.107  0.5009  0.1150  0.2178
24375SOL    HW174566   6.166   5.566   1.099  0.9374  0.1382  2.8037
24375SOL    HW274567   6.023   5.530   1.132  0.5699 -0.1944  0.9613
24376SOL     OW74568   7.067   3.921  11.486  0.3284 -0.1035 -0.1304
24376SOL    HW174569   7.076   3.948  11.395 -0.0214 -0.1575 -0.1830
24376SOL    HW274570   7.033   3.832  11.481  1.4003 -0.5408  0.0392
24377SOL     OW74571   7.246   6.509   2.770  0.1338 -0.1695  0.0351
24377SOL    HW174572   7.329   6.491   2.815 -0.3327 -0.4541  0.8074
24377SOL    HW274573   7.191   6.547   2.838 -0.9773 -1.6664  0.0207
24378SOL     OW74574   0.150   3.011   3.056  0.3393  0.0018  0.0545
24378SOL    HW174575   0.116   3.100   3.066  0.8623  0.4014 -1.4750
24378SOL    HW274576   0.072   2.958   3.039  0.0106  0.1181  1.1001
24379SOL     OW74577   5.600   4.748  11.280  0.1005 -0.1887 -0.9411
24379SOL    HW174578   5.556   4.799  11.211  0.2460 -0.3300 -1.1402
24379SOL    HW274579   5.666   4.808  11.315 -1.3192  0.6031  0.4861
24380SOL     OW74580   7.081   2.174   3.042  0.0916  0.0669 -0.3228
24380SOL    HW174581   7.004   2.123   3.063  0.4280  0.4114  1.9464
24380SOL    HW274582   7.062   2.262   3.074  1.9626 -0.1969  1.7164
24381SOL     OW74583   2.641   7.708   0.917  0.2925  0.0056 -0.3441
24381SOL    HW174584   2.647   7.694   0.822 -0.3149 -0.2805 -0.3463
24381SOL    HW274585   2.552   7.739   0.931 -0.2125 -1.6785  0.3357
24382SOL     OW74586   3.060   5.921   7.558  0.6528 -0.5842  0.0888
24382SOL    HW174587   3.031   5.867   7.632  0.1102  0.9536  1.0495
24382SOL    HW274588   2.979   5.957   7.522  1.0234 -0.1173 -0.2836
24383SOL     OW74589   0.875   0.038   5.783  0.1407 -0.0844  0.0187
24383SOL    HW174590   0.810   0.069   5.846 -1.0922 -2.0253 -0.2170
24383SOL    HW274591   0.945   0.001   5.837 -0.0992 -0.1886  0.2587
24384SOL     OW74592   7.265   7.019  10.724  0.3090 -0.5998 -0.6040
24384SOL    HW174593   7.326   7.037  10.795 -1.0487 -1.5045  0.8682
24384SOL    HW274594   7.320   7.009  10.647  1.8284  0.4901  0.2927
24385SOL     OW74595   7.316   5.301   8.304  0.1057  0.7700 -0.3888
24385SOL    HW174596   7.233   5.323   8.262  0.8899  1.2901 -1.6881
24385SOL    HW274597   7.370   5.379   8.294  1.4705 -0.2617 -1.3908
24386SOL     OW74598   2.618   6.900   8.146 -0.2561  0.4250  0.1961
24386SOL    HW174599   2.711   6.902   8.168 -0.3799 -0.6930  0.9105
24386SOL    HW274600   2.606   6.818   8.099 -1.1769 -0.3228  1.6695
24387SOL     OW74601   4.781   0.641  11.636 -0.3561 -0.5211  0.2394
24387SOL    HW174602   4.802   0.729  11.606  0.5280 -0.8956 -0.2850
24387SOL    HW274603   4.806   0.640  11.728 -0.0232 -0.3256  0.1527
24388SOL     OW74604   5.823   0.063   5.132 -0.4749 -0.0084  0.1801
24388SOL    HW174605   5.734   0.095   5.125 -0.0774  0.8205 -2.5240
24388SOL    HW274606   5.871   0.112   5.065  2.1072 -0.1508  1.7915
24389SOL     OW74607   1.229   1.118   8.246  0.8101 -0.3371  0.1458
24389SOL    HW174608   1.299   1.182   8.238  0.9171 -0.5525 -0.6809
24389SOL    HW274609   1.184   1.142   8.327  0.2606  1.3613 -0.6295
24390SOL     OW74610   4.768   0.398   6.139 -0.2246 -0.2657 -0.2263
24390SOL    HW174611   4.683   0.409   6.096 -0.9687 -1.3239  0.9009
24390SOL    HW274612   4.788   0.484   6.176 -2.2054 -0.6154  1.9002
24391SOL     OW74613   1.147   5.320  12.028  0.3365 -0.1544  0.2169
24391SOL    HW174614   1.236   5.342  12.055  0.4092  1.6194 -1.2823
24391SOL    HW274615   1.158   5.256  11.958  0.5361  1.1946 -1.0124
24392SOL     OW74616   4.298   2.936   8.572  0.6083  0.0863 -0.3452
24392SOL    HW174617   4.251   2.867   8.525 -0.8679 -0.5376  1.9011
24392SOL    HW274618   4.264   3.018   8.534 -1.9565 -0.3542  0.7976
24393SOL     OW74619   1.864   3.147   4.409 -0.2073 -0.1050 -0.4560
24393SOL    HW174620   1.958   3.155   4.423  0.2332  2.8563 -3.9500
24393SOL    HW274621   1.855   3.079   4.342 -0.5233  0.0959 -0.6180
24394SOL     OW74622   2.057   2.980   1.769  0.1155 -0.5250  0.4831
24394SOL    HW174623   2.101   2.948   1.848  0.8311 -1.1688 -0.1645
24394SOL    HW274624   2.125   2.980   1.702 -0.0938  1.4218  0.1939
24395SOL     OW74625   4.113   1.615   6.433 -0.5314 -0.3856 -0.7613
24395SOL    HW174626   4.032   1.609   6.483 -0.6612 -1.5557 -1.0772
24395SOL    HW274627   4.175   1.561   6.481 -0.2088 -0.2648 -1.0397
24396SOL     OW74628   1.841   5.752   3.678  0.3948  0.0756  0.4614
24396SOL    HW174629   1.853   5.732   3.771  0.3053 -1.2651  0.1921
24396SOL    HW274630   1.780   5.686   3.647  1.3857 -0.2646 -0.8294
24397SOL     OW74631   3.709   5.177   4.262 -0.2476 -0.3310  0.3258
24397SOL    HW174632   3.632   5.146   4.216  0.9499 -0.7915 -1.4603
24397SOL    HW274633   3.747   5.243   4.204  1.5761 -1.2659  0.3831
24398SOL     OW74634   6.370   1.780   8.287 -0.5505 -0.2029  0.1190
24398SOL    HW174635   6.343   1.692   8.258 -1.9847  0.6406 -1.2540
24398SOL    HW274636   6.408   1.766   8.373  0.1737 -2.3166 -0.4808
24399SOL     OW74637   5.260   2.589   2.323  0.5490  0.4243  0.3633
24399SOL    HW174638   5.197   2.545   2.381  1.8266 -1.3646  0.4868
24399SOL    HW274639   5.335   2.607   2.379  0.8723  0.8736 -0.2012
24400SOL     OW74640   5.076   6.322   6.094 -0.0505 -0.4491  0.7967
24400SOL    HW174641   5.075   6.251   6.031 -0.8094 -0.2315  0.5490
24400SOL    HW274642   5.019   6.291   6.165  0.8221 -0.7079  1.4051
24401SOL     OW74643   4.634   0.977   7.458 -0.2213  0.0075 -0.1977
24401SOL    HW174644   4.598   1.045   7.515 -1.1965 -0.8624  0.2561
24401SOL    HW274645   4.626   1.014   7.370  0.0932  0.8397  0.1143
24402SOL     OW74646   7.825   2.048   6.514  0.1986  0.7975 -0.5625
24402SOL    HW174647   7.738   2.024   6.544  0.5265  0.8346  0.4434
24402SOL    HW274648   7.824   2.028   6.420 -0.6274  0.0505 -0.4082
24403SOL     OW74649   2.621   7.155   3.774 -0.2124 -0.3777 -0.0547
24403SOL    HW174650   2.636   7.220   3.705  0.4892 -2.9491 -2.5144
24403SOL    HW274651   2.526   7.145   3.776 -0.3143  0.5426  0.1961
24404SOL     OW74652   3.870   5.731   7.482 -0.1648  0.3357  0.5433
24404SOL    HW174653   3.858   5.799   7.416 -1.2538  2.4365  2.7697
24404SOL    HW274654   3.811   5.661   7.455 -1.1025  1.4327 -0.3269
24405SOL     OW74655   5.157   1.360   0.334  0.4763  0.0927  0.1096
24405SOL    HW174656   5.248   1.344   0.308  0.7153  1.1561  0.2476
24405SOL    HW274657   5.163   1.390   0.425  0.0136  0.4186  0.0347
24406SOL     OW74658   1.043   7.267   3.030  0.3983  0.3191  0.2588
24406SOL    HW174659   1.132   7.246   3.001  0.3542 -0.9989  0.9777
24406SOL    HW274660   1.046   7.256   3.125 -0.9744 -1.6433  0.1348
24407SOL     OW74661   7.743   6.352  10.296  0.2047 -0.5735 -0.4306
24407SOL    HW174662   7.690   6.426  10.325 -1.8983 -1.9514 -0.5266
24407SOL    HW274663   7.681   6.281  10.285  2.3021 -2.7520  0.8750
24408SOL     OW74664   6.600   4.112   2.167  0.0987 -0.1844  0.4004
24408SOL    HW174665   6.578   4.154   2.084 -0.0076  0.3895  0.7173
24408SOL    HW274666   6.622   4.022   2.143 -0.0500 -0.0548 -0.2348
24409SOL     OW74667   6.366   1.531   9.033 -0.4520  0.6103  0.2747
24409SOL    HW174668   6.411   1.593   8.975 -2.4170  2.7590  0.8725
24409SOL    HW274669   6.386   1.563   9.121 -0.0624 -0.7385  0.7072
24410SOL     OW74670   4.293   0.878  10.420 -0.2439  0.6944  0.2891
24410SOL    HW174671   4.211   0.926  10.425 -2.4804 -2.8941  1.8437
24410SOL    HW274672   4.329   0.882  10.509 -1.1009 -1.3202  0.7839
24411SOL     OW74673   4.445   0.519   6.250  0.1586  0.2553  0.1040
24411SOL    HW174674   4.496   0.507   6.171 -1.2359 -2.1524 -0.5426
24411SOL    HW274675   4.507   0.504   6.322  0.8629 -0.3079 -0.6081
24412SOL     OW74676   5.915   5.960  12.206  0.0529 -0.1570  0.0151
24412SOL    HW174677   5.873   6.043  12.182  2.8968  1.5711  0.4879
24412SOL    HW274678   5.842   5.898  12.215 -2.1583  2.1007 -0.9646
24413SOL     OW74679   3.254   7.232   0.426  0.0840  0.2412 -0.0659
24413SOL    HW174680   3.169   7.194   0.449 -1.1531  2.5590 -0.4139
24413SOL    HW274681   3.244   7.256   0.333  1.2142  0.3296 -0.1732
24414SOL     OW74682   4.748   4.348   3.351 -0.3856 -0.4633  0.0343
24414SOL    HW174683   4.733   4.427   3.300  0.4192 -1.0240 -1.1032
24414SOL    HW274684   4.711   4.277   3.299 -0.2625 -0.9600  0.6036
24415SOL     OW74685   4.347   5.208   6.366  0.5679 -0.0871 -0.8260
24415SOL    HW174686   4.295   5.284   6.393  0.5826 -0.6641  1.0060
24415SOL    HW274687   4.403   5.240   6.296  0.6030  1.6189 -0.0587
24416SOL     OW74688   7.770   2.202  11.449 -0.1287 -0.1644 -0.2584
24416SOL    HW174689   7.752   2.235  11.537 -0.8574 -0.9526 -0.1006
24416SOL    HW274690   7.848   2.147  11.460  0.5256  0.7233 -0.3503
24417SOL     OW74691   3.972   2.384  11.409  0.2022 -0.2043 -0.1225
24417SOL    HW174692   4.010   2.345  11.488  0.8907 -1.2095 -0.9126
24417SOL    HW274693   3.936   2.309  11.361  0.9478  0.2074 -1.3634
24418SOL     OW74694   2.483   3.638  12.233 -0.2039 -0.6358  0.1465
24418SOL    HW174695   2.545   3.580  12.189 -2.0171 -2.6441  0.0577
24418SOL    HW274696   2.493   3.722  12.189  2.7355 -0.7099  0.4781
24419SOL     OW74697   0.204   4.747  10.101 -0.4289  0.3263  0.0508
24419SOL    HW174698   0.183   4.735  10.009  0.1298 -1.1482  0.0846
24419SOL    HW274699   0.220   4.658  10.134 -1.1646  0.7578  1.7058
24420SOL     OW74700   5.056   4.522   7.394  0.4178 -0.0142 -0.2221
24420SOL    HW174701   5.021   4.447   7.346  0.4263  1.0251 -1.9653
24420SOL    HW274702   5.132   4.488   7.441  1.3407 -0.8066 -2.1855
24421SOL     OW74703   7.687   5.471  12.409  0.3522 -0.2955  0.2664
24421SOL    HW174704   7.676   5.550  12.461  0.2092  0.1443 -0.4343
24421SOL    HW274705   7.782   5.462  12.400  0.3689  1.6450 -2.4302
24422SOL     OW74706   4.551   7.824  12.395 -0.4815  0.2194  0.2845
24422SOL    HW174707   4.483   7.884  12.365  0.3222 -0.2734 -2.8747
24422SOL    HW274708   4.632   7.875  12.388 -0.1367 -0.2878  0.5566
24423SOL     OW74709   5.151   4.619   3.256 -0.2504  0.4947  0.2543
24423SOL    HW174710   5.172   4.707   3.226 -1.5372  0.0797 -2.1212
24423SOL    HW274711   5.235   4.573   3.256  0.0681  1.0041 -1.2720
24424SOL     OW74712   5.577   0.094   7.731 -0.4909  0.2403  0.0932
24424SOL    HW174713   5.594   0.018   7.674 -0.8732  0.7257 -0.6830
24424SOL    HW274714   5.649   0.093   7.795  0.5841  0.3266 -1.0751
24425SOL     OW74715   1.389   6.826   0.675 -0.1412  0.4673 -0.3738
24425SOL    HW174716   1.307   6.817   0.724  0.2914  1.2940  0.5236
24425SOL    HW274717   1.457   6.795   0.734  0.2814  0.4607 -0.8541
24426SOL     OW74718   0.836   4.214   6.328 -0.0213 -0.1147  0.6913
24426SOL    HW174719   0.758   4.196   6.380  1.7101 -1.6401  2.9493
24426SOL    HW274720   0.879   4.129   6.318  2.5699  0.9618  1.6473
24427SOL     OW74721   1.915   2.445  10.471 -0.3436 -0.3227  0.0479
24427SOL    HW174722   1.935   2.376  10.534 -1.0219  0.8004  1.5423
24427SOL    HW274723   1.820   2.447  10.465 -0.5363  2.2667  2.2016
24428SOL     OW74724   0.460   0.093   8.430  0.2803  0.4875 -0.0853
24428SOL    HW174725   0.401   0.158   8.468  1.4079  0.4384  1.9601
24428SOL    HW274726   0.537   0.143   8.404  0.3595  0.2300 -0.3493
24429SOL     OW74727   5.146   2.428   1.466  0.0557 -0.0176 -0.6299
24429SOL    HW174728   5.167   2.521   1.460  0.4211 -0.2095 -3.5832
24429SOL    HW274729   5.087   2.412   1.393 -1.4107 -1.8124  0.8375
24430SOL     OW74730   5.090   3.033   6.151 -0.2650  0.2886 -0.4469
24430SOL    HW174731   5.140   2.970   6.098 -1.6262 -0.4863 -0.8621
24430SOL    HW274732   5.122   3.019   6.240  0.1854 -0.2752 -0.6847
24431SOL     OW74733   7.824   2.391   5.522 -0.3013 -0.1542  0.5131
24431SOL    HW174734   7.822   2.424   5.612 -1.6764 -2.9655  1.6193
24431SOL    HW274735   7.733   2.376   5.499  0.1229 -1.0675 -0.7018
24432SOL     OW74736   6.024   3.156  11.597  0.5870 -0.3137  0.2179
24432SOL    HW174737   6.085   3.087  11.622  1.3204  0.4950  0.7023
24432SOL    HW274738   5.976   3.119  11.523 -0.0164 -1.8696  1.3218
24433SOL     OW74739   5.390   0.415   3.351 -0.2610  0.2995 -0.0342
24433SOL    HW174740   5.405   0.445   3.440 -2.5286  1.0955  0.1273
24433SOL    HW274741   5.458   0.459   3.300  0.5751  0.4473  1.1614
24434SOL     OW74742   2.099   0.649   7.521 -0.1213 -0.1499 -0.0432
24434SOL    HW174743   2.169   0.624   7.581 -0.5379 -1.5739 -0.1104
24434SOL    HW274744   2.099   0.580   7.454 -0.8519  0.4329 -0.6666
24435SOL     OW74745   7.751   7.837   9.076  0.0894  0.8297 -0.3761
24435SOL    HW174746   7.687   7.809   9.010 -0.9878  1.1721  0.4902
24435SOL    HW274747   7.818   7.769   9.074 -0.6186  0.1231 -0.8763
24436SOL     OW74748   2.473   6.429   8.091 -0.0212 -0.4246  0.2712
24436SOL    HW174749   2.524   6.386   8.023 -0.4189 -0.8159  0.2203
24436SOL    HW274750   2.495   6.522   8.082  0.4161 -0.5482  0.0296
24437SOL     OW74751   3.244   0.177   5.180  0.1062  0.2806 -0.2881
24437SOL    HW174752   3.171   0.149   5.236 -0.9348  1.3930 -1.0395
24437SOL    HW274753   3.322   0.159   5.232 -0.8489  2.0036  1.9317
24438SOL     OW74754   7.791   2.353   8.067  0.0066 -0.3847  0.3791
24438SOL    HW174755   7.750   2.307   7.993  0.3991 -0.1428  0.0022
24438SOL    HW274756   7.838   2.285   8.114 -0.3354 -0.5607  0.4688
24439SOL     OW74757   1.368   4.607  11.411  0.0846 -0.9707 -0.2358
24439SOL    HW174758   1.293   4.666  11.403  0.1527 -0.9085 -0.4247
24439SOL    HW274759   1.443   4.665  11.427 -0.2128 -1.1384  2.2282
24440SOL     OW74760   0.717   7.484   4.911 -0.3215  0.0564 -0.0304
24440SOL    HW174761   0.667   7.480   4.993 -0.5862  1.7991 -0.0714
24440SOL    HW274762   0.735   7.392   4.889 -4.0470 -0.7302 -0.3586
24441SOL     OW74763   2.895   0.296   5.162 -0.3880  0.2159  0.4844
24441SOL    HW174764   2.864   0.372   5.211  0.7755  2.4895 -2.0330
24441SOL    HW274765   2.933   0.238   5.228 -2.0963  1.3731  2.6020
24442SOL     OW74766   7.473   3.502  11.939 -0.0081 -0.4877 -0.5278
24442SOL    HW174767   7.379   3.499  11.957  0.1519 -0.5886  0.3461
24442SOL    HW274768   7.479   3.505  11.843 -0.9029 -0.1503 -0.5847
24443SOL     OW74769   3.356   2.233   5.478 -0.2661  0.0524 -0.1960
24443SOL    HW174770   3.273   2.193   5.452 -0.3011 -0.3170  0.4672
24443SOL    HW274771   3.388   2.178   5.549 -0.6612  1.5573  1.2155
24444SOL     OW74772   5.665   4.372  10.552  0.3625 -0.1427  0.3649
24444SOL    HW174773   5.677   4.452  10.604  0.7853  1.1026 -1.5471
24444SOL    HW274774   5.576   4.345  10.572  0.7370 -0.1257  2.2515
24445SOL     OW74775   5.714   6.532  11.418 -0.1837 -0.2707  0.3826
24445SOL    HW174776   5.710   6.625  11.396 -2.7611 -0.3194  0.3182
24445SOL    HW274777   5.796   6.522  11.467  2.2520  1.2017 -3.0020
24446SOL     OW74778   7.222   6.850   7.503  0.1786  0.0516  0.6181
24446SOL    HW174779   7.135   6.883   7.482 -0.4632 -1.3706  0.8770
24446SOL    HW274780   7.232   6.866   7.597  0.7323  1.3308  0.3635
24447SOL     OW74781   3.393   7.531   1.479  0.0439 -0.5156 -0.4063
24447SOL    HW174782   3.441   7.581   1.414  0.0278 -1.9627 -1.5800
24447SOL    HW274783   3.460   7.483   1.527 -0.0728 -1.0015 -0.7190
24448SOL     OW74784   1.039   0.369   1.208 -0.5981  0.4833 -0.1280
24448SOL    HW174785   1.035   0.371   1.303 -2.5541  0.6624 -0.1800
24448SOL    HW274786   1.048   0.276   1.187  0.5467  0.4964  0.2157
24449SOL     OW74787   7.890   1.786   9.091 -0.4450 -0.0299  0.0069
24449SOL    HW174788   7.925   1.874   9.075 -0.4282  0.3291  1.7554
24449SOL    HW274789   7.795   1.798   9.092 -0.4776 -0.2183 -0.6917
24450SOL     OW74790   3.209   6.289   4.349  0.3553  0.1666  0.1458
24450SOL    HW174791   3.163   6.330   4.275  2.0771  0.8418 -0.5919
24450SOL    HW274792   3.252   6.361   4.393  0.0894 -0.3615  1.3048
24451SOL     OW74793   4.731   6.695  12.208 -0.8215 -0.4537 -0.1245
24451SOL    HW174794   4.653   6.735  12.247  0.1070  0.5561  0.7562
24451SOL    HW274795   4.730   6.725  12.117  0.1982  2.2265  0.6670
24452SOL     OW74796   1.761   2.563   3.584 -0.2538  0.2752 -0.1266
24452SOL    HW174797   1.777   2.535   3.674 -1.4394  0.1929  0.0859
24452SOL    HW274798   1.733   2.483   3.539 -0.8465  0.5413 -0.2461
24453SOL     OW74799   4.840   2.739   8.762 -0.1106  0.1800  0.3058
24453SOL    HW174800   4.835   2.658   8.712  1.1037  0.6668 -0.6541
24453SOL    HW274801   4.751   2.753   8.794 -0.7950 -0.4471 -1.2472
24454SOL     OW74802   5.053   0.696   4.815  0.1632  0.1010  0.0477
24454SOL    HW174803   5.045   0.602   4.799 -1.7858  0.0177  1.2123
24454SOL    HW274804   5.143   0.717   4.791  0.4575 -1.9438 -0.7970
24455SOL     OW74805   0.891   1.958   1.174  0.7188 -0.5273  0.0888
24455SOL    HW174806   0.825   1.896   1.143 -0.4003  1.6333 -2.2189
24455SOL    HW274807   0.885   2.032   1.114  1.8768  1.9167  2.7049
24456SOL     OW74808   7.359   5.403   9.062 -0.4314  0.2017  0.2214
24456SOL    HW174809   7.275   5.409   9.016  0.2034 -0.9203 -1.1649
24456SOL    HW274810   7.403   5.328   9.022  1.3458  0.9110  0.7367
24457SOL     OW74811   5.857   4.929   2.019  0.0494  0.0377  0.0254
24457SOL    HW174812   5.939   4.979   2.027 -0.2155  0.3895  0.6259
24457SOL    HW274813   5.885   4.840   1.999  0.8557 -0.7621  3.7857
24458SOL     OW74814   2.425   5.868   0.841  0.3137 -0.4458 -0.3579
24458SOL    HW174815   2.377   5.919   0.775 -1.2293 -1.0546  0.2681
24458SOL    HW274816   2.440   5.929   0.913 -0.1068 -0.4301 -0.2827
24459SOL     OW74817   2.953   0.454   0.308  0.5752 -0.3297  0.2575
24459SOL    HW174818   2.991   0.397   0.241  0.7113 -0.2543  0.2687
24459SOL    HW274819   2.972   0.543   0.276  0.0637 -0.2862  0.0685
24460SOL     OW74820   5.233   4.606  11.857 -0.1047  0.2413  0.2593
24460SOL    HW174821   5.245   4.521  11.900  0.8990  0.3694  0.2525
24460SOL    HW274822   5.303   4.610  11.792 -1.5821  0.0427 -1.4227
24461SOL     OW74823   5.881   4.453  11.931 -0.3620  0.4285  0.0623
24461SOL    HW174824   5.864   4.519  11.998  1.4423 -0.0369  1.0472
24461SOL    HW274825   5.886   4.370  11.980 -1.2920 -0.2640 -0.9744
24462SOL     OW74826   3.673   1.041   7.193  0.1523  0.3022  0.0012
24462SOL    HW174827   3.638   0.982   7.259  1.6933 -1.0920 -0.3668
24462SOL    HW274828   3.683   1.125   7.239  0.3655 -0.4075  1.2902
24463SOL     OW74829   6.019   0.448   1.163 -0.2693  0.4090 -0.0123
24463SOL    HW174830   6.058   0.444   1.251  0.5742 -0.6207 -0.4066
24463SOL    HW274831   6.024   0.541   1.139  0.6629  0.5138  0.5307
24464SOL     OW74832   1.793   4.180   0.398  0.1436  0.0703 -1.0092
24464SOL    HW174833   1.869   4.197   0.454 -1.5580  0.5033  1.3485
24464SOL    HW274834   1.821   4.108   0.341  2.1877 -0.0468  0.0410
24465SOL     OW74835   0.276   1.461   6.949 -0.2500  0.2731  0.2998
24465SOL    HW174836   0.239   1.457   7.038  0.0496  0.6752  0.4430
24465SOL    HW274837   0.249   1.378   6.909  0.2681 -0.2630  1.0247
24466SOL     OW74838   1.565   7.150   3.407  0.6260 -0.3182  0.2474
24466SOL    HW174839   1.636   7.089   3.387  0.5523 -0.5012  0.5379
24466SOL    HW274840   1.599   7.236   3.382  1.2467 -0.3031  1.0997
24467SOL     OW74841   4.840   5.161   3.076  0.8515 -0.2181 -0.3196
24467SOL    HW174842   4.804   5.083   3.118 -0.7114  0.8270  0.4129
24467SOL    HW274843   4.895   5.202   3.143  1.0869 -0.3249 -0.4495
24468SOL     OW74844   3.873   3.489  10.579  0.1854 -0.0796 -0.0523
24468SOL    HW174845   3.790   3.442  10.592 -0.2727  0.3750 -1.2406
24468SOL    HW274846   3.937   3.421  10.558 -0.1909 -0.3037 -0.4820
24469SOL     OW74847   0.543   3.197  10.316 -0.2254 -0.6789  0.3723
24469SOL    HW174848   0.610   3.239  10.262 -2.4243  0.1579 -1.8376
24469SOL    HW274849   0.556   3.103  10.301 -0.4208 -0.4808 -1.2040
24470SOL     OW74850   6.825   1.255   6.318 -0.3708  0.1191  0.6740
24470SOL    HW174851   6.838   1.302   6.400 -1.2147  0.3923  0.6613
24470SOL    HW274852   6.731   1.262   6.301 -0.0973  0.6621 -0.6800
24471SOL     OW74853   2.123   7.699   2.278 -0.1498  0.5375  0.1234
24471SOL    HW174854   2.109   7.794   2.279 -0.7436  0.4791 -1.0948
24471SOL    HW274855   2.211   7.689   2.242 -0.4142  0.6132 -0.5692
24472SOL     OW74856   3.186   3.646   1.499  0.0645 -0.5093  0.2809
24472SOL    HW174857   3.244   3.680   1.431 -1.8235  1.5582 -0.4239
24472SOL    HW274858   3.212   3.694   1.579 -0.4693  0.2211  0.0260
24473SOL     OW74859   1.021   4.589   1.053  0.1580 -0.2071  0.1721
24473SOL    HW174860   1.074   4.607   1.130 -1.5677  1.9174  0.9463
24473SOL    HW274861   1.005   4.495   1.057  3.2300 -0.8257  0.2414
24474SOL     OW74862   4.652   5.902   7.584 -0.0058 -0.1373  0.1720
24474SOL    HW174863   4.635   5.812   7.559  0.3935  0.2127 -1.4974
24474SOL    HW274864   4.565   5.941   7.596 -0.2826 -0.0417 -1.8687
24475SOL     OW74865   0.478   7.720   5.223 -0.5027  0.0331 -0.3664
24475SOL    HW174866   0.481   7.779   5.298 -0.2430  0.0644 -0.3972
24475SOL    HW274867   0.570   7.698   5.207 -0.6467 -1.0901  0.2045
24476SOL     OW74868   1.408   7.159  10.168  0.0010  0.1072 -0.0106
24476SOL    HW174869   1.381   7.192  10.254  0.9852 -1.2789  0.8559
24476SOL    HW274870   1.495   7.123  10.182  0.9685  1.4792 -2.0172
24477SOL     OW74871   7.038   0.599   9.480 -0.5978  0.7789  0.8515
24477SOL    HW174872   7.071   0.615   9.392  0.5206 -0.1608  1.0793
24477SOL    HW274873   7.080   0.667   9.533  0.2323  0.2039  0.9619
24478SOL     OW74874   7.568   2.621   9.271  0.1659 -0.1642 -0.3266
24478SOL    HW174875   7.583   2.633   9.177  0.9577 -1.5650 -0.4072
24478SOL    HW274876   7.474   2.639   9.282  0.5256  2.5303 -0.9056
24479SOL     OW74877   2.247   7.751   1.657  0.1961  0.0762 -0.3129
24479SOL    HW174878   2.322   7.809   1.667  0.7849 -0.8665  0.8573
24479SOL    HW274879   2.272   7.691   1.586  0.3949 -0.0112 -0.1673
24480SOL     OW74880   0.076   6.779   7.592 -0.4670 -0.0020 -0.0538
24480SOL    HW174881   0.096   6.686   7.598  0.3371  0.0291 -1.6582
24480SOL    HW274882   0.098   6.803   7.502 -0.3828  1.8092  0.3991
24481SOL     OW74883   6.401   5.026  10.661  0.0245  0.3172  0.1171
24481SOL    HW174884   6.489   5.049  10.690 -0.5981  1.9275  0.8641
24481SOL    HW274885   6.411   4.941  10.617  2.0657  0.8502 -0.5462
24482SOL     OW74886   1.596   3.302   4.443 -0.3519 -0.1741 -0.2163
24482SOL    HW174887   1.557   3.364   4.504 -2.6465 -1.2303 -0.5061
24482SOL    HW274888   1.656   3.355   4.390  0.0149  1.1766  1.4576
24483SOL     OW74889   4.739   3.758   4.429  0.0505  0.3434  0.6007
24483SOL    HW174890   4.672   3.818   4.463 -0.1045  0.5432 -0.0439
24483SOL    HW274891   4.783   3.726   4.507 -1.0453 -0.0921  1.0695
24484SOL     OW74892   2.592   6.815   6.549  0.0540  0.2008  0.5869
24484SOL    HW174893   2.687   6.824   6.548  0.2091 -0.9711  1.8927
24484SOL    HW274894   2.561   6.875   6.480  1.7439  0.2817 -0.1427
24485SOL     OW74895   1.354   3.745   3.432  0.1812 -0.2951 -0.3381
24485SOL    HW174896   1.354   3.819   3.371  1.4600 -0.0640 -0.0724
24485SOL    HW274897   1.322   3.671   3.380 -0.1900  0.2240 -0.8672
24486SOL     OW74898   6.505   3.847  10.670 -0.1837 -0.0500  0.4023
24486SOL    HW174899   6.489   3.773  10.612 -0.4934  0.2010  0.1638
24486SOL    HW274900   6.591   3.830  10.708 -0.3790 -0.6777  0.5770
24487SOL     OW74901   6.717   0.864   9.023 -0.3080 -0.3820  0.2102
24487SOL    HW174902   6.789   0.874   8.960 -1.2082  1.3020 -0.6440
24487SOL    HW274903   6.760   0.850   9.107  1.0740  1.2499 -0.1611
24488SOL     OW74904   0.982   6.238   3.078 -0.8774  0.5619  0.2513
24488SOL    HW174905   1.005   6.243   2.985 -1.4135 -0.9026  0.0110
24488SOL    HW274906   1.043   6.173   3.113 -1.4998  0.1794  0.6376
24489SOL     OW74907   0.864   0.929   8.749 -0.3387  0.1112 -0.0148
24489SOL    HW174908   0.831   0.925   8.838 -0.7167 -0.5847 -0.1768
24489SOL    HW274909   0.835   1.015   8.716 -0.3962  0.2706  0.4457
24490SOL     OW74910   5.828   6.831  12.172 -0.4851  0.1244  0.1649
24490SOL    HW174911   5.904   6.889  12.169  0.6193 -1.2654 -0.5262
24490SOL    HW274912   5.781   6.856  12.251  0.0449  1.7971 -0.0205
24491SOL     OW74913   5.593   6.650   5.101 -0.1853  0.5180 -0.0206
24491SOL    HW174914   5.574   6.556   5.091  2.7448 -0.2903  0.7126
24491SOL    HW274915   5.555   6.691   5.024 -2.7794 -1.0097  0.3201
24492SOL     OW74916   3.350   7.443   7.794 -0.4636  0.3620  0.0992
24492SOL    HW174917   3.313   7.487   7.718  0.6043  0.8486 -0.1556
24492SOL    HW274918   3.287   7.459   7.864 -0.5560  1.5149 -0.2243
24493SOL     OW74919   6.078   4.766   8.242 -0.3801  0.1662  0.2271
24493SOL    HW174920   6.089   4.790   8.334 -1.3214 -1.3829  0.7665
24493SOL    HW274921   6.042   4.677   8.243  1.2087 -0.5867 -1.6581
24494SOL     OW74922   2.330   6.180   4.697 -0.1067  0.1570 -0.2885
24494SOL    HW174923   2.324   6.264   4.651  2.1231 -0.4085 -1.7705
24494SOL    HW274924   2.240   6.149   4.701 -0.5950  0.9043 -3.1371
24495SOL     OW74925   6.516   2.099   2.186 -0.0458 -0.3850  0.0896
24495SOL    HW174926   6.465   2.047   2.247 -1.1438 -0.4940 -0.8916
24495SOL    HW274927   6.452   2.133   2.123  0.9492  0.3159 -0.5839
24496SOL     OW74928   3.406   0.388   0.071 -0.3051 -0.8684 -0.1264
24496SOL    HW174929   3.468   0.450   0.033  0.0519 -2.0052 -1.5006
24496SOL    HW274930   3.345   0.369   0.000 -1.5602 -0.6520  0.8605
24497SOL     OW74931   6.915   4.851   3.935 -0.4854 -0.6669 -0.1919
24497SOL    HW174932   6.965   4.927   3.904  0.5535 -1.2163  0.0845
24497SOL    HW274933   6.891   4.873   4.025  1.8267 -1.5671  0.7242
24498SOL     OW74934   0.206   0.852   6.291 -0.0930 -0.0271 -0.0607
24498SOL    HW174935   0.189   0.936   6.332  0.5292  0.4969 -0.8334
24498SOL    HW274936   0.280   0.816   6.340  1.1864  0.9703 -1.1866
24499SOL     OW74937   0.461   7.822   8.550  0.4714 -0.4065 -0.2367
24499SOL    HW174938   0.556   7.822   8.547  0.4506 -0.7210 -1.6323
24499SOL    HW274939   0.436   7.909   8.518  0.2844 -0.8012 -1.1932
24500SOL     OW74940   0.240   4.246  10.717 -0.7905  0.1802 -0.0862
24500SOL    HW174941   0.177   4.315  10.696 -1.2078 -0.3998 -0.7683
24500SOL    HW274942   0.318   4.269  10.668 -0.8420  0.2941 -0.1160
24501SOL     OW74943   5.376   6.558   9.460 -0.1345  0.6413  0.2791
24501SOL    HW174944   5.372   6.577   9.554  0.8488  0.0297  0.4564
24501SOL    HW274945   5.451   6.499   9.450 -0.3902  0.4784 -0.8557
24502SOL     OW74946   6.259   4.205   8.183  0.1201 -0.4577  0.3398
24502SOL    HW174947   6.330   4.181   8.123 -0.8772  0.0032 -1.0792
24502SOL    HW274948   6.217   4.280   8.141 -1.1103 -0.6313  1.2231
24503SOL     OW74949   1.573   1.166   4.851  0.5070  0.6347 -0.1269
24503SOL    HW174950   1.540   1.084   4.814 -0.5915  0.8683  0.3011
24503SOL    HW274951   1.608   1.213   4.776  1.5429 -0.3896 -0.3192
24504SOL     OW74952   6.998   5.720   5.315  0.0531  0.7014  0.3457
24504SOL    HW174953   6.908   5.686   5.308  0.0239  0.8613 -0.0682
24504SOL    HW274954   7.014   5.762   5.231  0.2345  1.3627  0.7035
24505SOL     OW74955   7.596   2.477  11.823 -0.5798  0.6993  0.1728
24505SOL    HW174956   7.687   2.503  11.811 -0.0746  0.1510  2.3238
24505SOL    HW274957   7.554   2.554  11.862 -0.6715  0.4545  0.5585
24506SOL     OW74958   0.715   0.258   0.923  0.7132  0.6006  0.3426
24506SOL    HW174959   0.726   0.330   0.986 -2.1475  2.7571 -1.3683
24506SOL    HW274960   0.660   0.194   0.969 -0.5995  1.7361  0.4184
24507SOL     OW74961   0.192   1.163   5.006  0.2730 -0.2588 -0.0604
24507SOL    HW174962   0.216   1.091   5.066  0.7117 -0.8978 -0.9784
24507SOL    HW274963   0.208   1.242   5.057 -0.5990 -0.8103  1.1119
24508SOL     OW74964   0.773   6.572   3.130  0.8077 -0.4997 -0.2841
24508SOL    HW174965   0.861   6.562   3.166  0.4875  1.8547  1.3794
24508SOL    HW274966   0.734   6.485   3.135  1.9293 -0.9448  2.1148
24509SOL     OW74967   2.167   1.456   9.675 -0.7093 -0.1133 -0.5080
24509SOL    HW174968   2.123   1.515   9.736 -1.5143 -1.2253  0.0351
24509SOL    HW274969   2.259   1.481   9.679 -0.8568  0.3085  0.6205
24510SOL     OW74970   0.785   5.247   6.259 -0.4069  0.1174 -0.5235
24510SOL    HW174971   0.713   5.294   6.301 -1.4513 -1.4424 -0.4921
24510SOL    HW274972   0.859   5.307   6.264 -1.1339  0.9246  1.4017
24511SOL     OW74973   4.129   7.337   2.980 -0.0457 -0.2423 -0.1297
24511SOL    HW174974   4.140   7.244   2.998  0.7294 -0.5542 -1.9973
24511SOL    HW274975   4.217   7.374   2.993  0.1761 -0.2073 -1.5903
24512SOL     OW74976   3.098   0.999   6.224  0.0126  0.0047 -0.5432
24512SOL    HW174977   3.007   0.998   6.194 -0.0727 -2.3646 -0.3147
24512SOL    HW274978   3.097   1.054   6.302 -1.1814  0.1140 -0.6197
24513SOL     OW74979   0.844   5.062   0.467 -0.0388 -0.2673 -0.3688
24513SOL    HW174980   0.792   5.116   0.406 -1.4228  0.2937  1.2267
24513SOL    HW274981   0.925   5.112   0.479 -1.2588  1.5050  1.0106
24514SOL     OW74982   4.859   5.704   5.066 -0.2038  0.3718 -0.0426
24514SOL    HW174983   4.782   5.712   5.122  0.1261 -0.4409  0.5506
24514SOL    HW274984   4.825   5.707   4.977 -0.7153  1.9160  0.1668
24515SOL     OW74985   7.198   3.260   0.695 -0.2797 -0.3954  0.3310
24515SOL    HW174986   7.114   3.248   0.649  0.2143  1.2343 -1.1108
24515SOL    HW274987   7.183   3.335   0.752  0.0252 -0.4688  0.5052
24516SOL     OW74988   3.130   7.073   1.651 -0.5028 -0.1429 -0.5032
24516SOL    HW174989   3.056   7.132   1.666 -0.5665 -0.1921 -0.6286
24516SOL    HW274990   3.091   6.994   1.616 -0.6365 -0.9235  1.2800
24517SOL     OW74991   5.276   1.638   0.935 -0.4569 -0.9103  0.2283
24517SOL    HW174992   5.305   1.591   1.014  0.6722  0.9853  1.0083
24517SOL    HW274993   5.184   1.659   0.952 -0.5899 -1.6247  0.4562
24518SOL     OW74994   5.013   0.683   5.090  0.0999  0.6794  0.0402
24518SOL    HW174995   5.015   0.705   4.997 -0.9454  0.5586 -0.0327
24518SOL    HW274996   4.943   0.738   5.125 -0.4936 -0.3158  0.4579
24519SOL     OW74997   6.854   2.373   7.544 -0.5169  0.6620 -0.6645
24519SOL    HW174998   6.812   2.320   7.476 -0.2445 -1.4855  0.7630
24519SOL    HW274999   6.792   2.444   7.561 -1.1772  0.4920 -2.1871
24520SOL     OW75000   6.984   1.084   7.870 -0.2262  0.7671  0.3107
24520SOL    HW175001   6.910   1.068   7.810 -0.7955 -0.4920  1.3184
24520SOL    HW275002   6.967   1.028   7.945  0.9902  1.6004  1.2463
24521SOL     OW75003   6.207   3.948   8.252 -0.5117  0.4221  0.3772
24521SOL    HW175004   6.240   4.027   8.209 -1.0453  0.6392  0.3662
24521SOL    HW275005   6.116   3.968   8.273  0.1126  0.8577  2.9037
24522SOL     OW75006   0.307   6.538   7.840 -0.4908  0.3327 -0.0320
24522SOL    HW175007   0.221   6.496   7.852 -1.0823  1.3394 -0.6123
24522SOL    HW275008   0.363   6.496   7.905 -1.3074 -0.6694  0.0491
24523SOL     OW75009   1.837   5.327   9.361 -0.1106  0.3689  0.1939
24523SOL    HW175010   1.841   5.266   9.287 -1.2751 -0.8592  1.0915
24523SOL    HW275011   1.897   5.397   9.337  0.5676 -0.6631 -1.3050
24524SOL     OW75012   3.281   4.695   4.478  0.2569  0.0098 -0.2116
24524SOL    HW175013   3.236   4.767   4.434  0.7220  0.2699 -0.2654
24524SOL    HW275014   3.259   4.617   4.426  3.0160  0.6737 -2.6221
24525SOL     OW75015   2.651   0.474   9.646  0.4554 -0.1274 -0.3950
24525SOL    HW175016   2.664   0.409   9.576  1.0541  0.7471 -1.1172
24525SOL    HW275017   2.709   0.546   9.622  0.0093  0.5552  0.5524
24526SOL     OW75018   1.710   5.748   6.365 -0.4816 -0.0841  0.3956
24526SOL    HW175019   1.774   5.676   6.369 -2.3455 -2.0046 -1.7811
24526SOL    HW275020   1.707   5.772   6.273  0.1442  2.9784  1.0803
24527SOL     OW75021   7.071   1.761   4.587  0.2155 -0.8139  0.3908
24527SOL    HW175022   7.089   1.827   4.654 -0.1511  0.0092 -0.3047
24527SOL    HW275023   6.985   1.784   4.553  0.4336 -1.1759 -0.4254
24528SOL     OW75024   0.228   7.733   9.869  0.0408 -0.0509 -0.2983
24528SOL    HW175025   0.167   7.744   9.795  0.1201 -0.8307 -0.4842
24528SOL    HW275026   0.241   7.822   9.902 -2.1418  0.0341  0.5213
24529SOL     OW75027   6.295   6.024  10.009  0.1555 -0.0115  0.5049
24529SOL    HW175028   6.251   5.939   9.999 -2.1801  1.2547 -1.0061
24529SOL    HW275029   6.366   6.022   9.945  1.0727 -1.3269  1.5133
24530SOL     OW75030   3.397   0.798   2.593 -0.2266 -0.3220 -0.4183
24530SOL    HW175031   3.332   0.809   2.662  0.2571 -1.1930  0.1931
24530SOL    HW275032   3.409   0.703   2.586 -0.1494 -0.2475 -1.5993
24531SOL     OW75033   4.648   4.959   3.312  0.0445  0.7896  1.1323
24531SOL    HW175034   4.627   4.901   3.386  0.5291 -1.1632 -0.1784
24531SOL    HW275035   4.607   5.042   3.334 -5.6406 -1.4657  0.6589
24532SOL     OW75036   4.093   4.902   6.166  0.2847  0.0624  0.0932
24532SOL    HW175037   4.028   4.833   6.153  0.1353  0.2593 -0.2239
24532SOL    HW275038   4.089   4.954   6.086  1.5649 -0.5116 -0.3747
24533SOL     OW75039   2.817   2.316   2.391 -0.1011  0.1203  0.2154
24533SOL    HW175040   2.815   2.224   2.416 -0.6853 -0.1599 -0.8169
24533SOL    HW275041   2.806   2.364   2.473 -0.9102 -0.7460  0.6205
24534SOL     OW75042   2.645   6.483   1.188 -0.3237  0.0692 -0.0875
24534SOL    HW175043   2.598   6.468   1.271  1.2155 -0.7273  0.6871
24534SOL    HW275044   2.682   6.571   1.198  0.5069 -0.3225  0.4345
24535SOL     OW75045   3.817   3.808   6.012  0.5956 -0.0269 -0.1899
24535SOL    HW175046   3.747   3.844   5.958 -0.4645 -0.1440  1.0691
24535SOL    HW275047   3.898   3.832   5.966 -0.1272  2.5064 -0.2549
24536SOL     OW75048   3.392   6.159   7.934 -0.2040  0.0449  0.0408
24536SOL    HW175049   3.336   6.147   7.858 -0.2547  1.0439 -0.1003
24536SOL    HW275050   3.481   6.156   7.899 -0.2348  1.8529 -0.3278
24537SOL     OW75051   0.807   5.136   3.719  0.1792  0.1842 -0.2041
24537SOL    HW175052   0.894   5.140   3.681  0.4121 -0.4774  0.2467
24537SOL    HW275053   0.797   5.219   3.766  0.0008  0.8862 -1.4266
24538SOL     OW75054   5.061   6.415   5.249 -0.1010  0.2983  0.2032
24538SOL    HW175055   5.101   6.342   5.202 -2.9490 -0.9101 -0.6141
24538SOL    HW275056   5.075   6.490   5.192 -2.8272 -0.9940 -2.4868
24539SOL     OW75057   5.032   7.875   9.440  0.5807  0.0413 -0.6058
24539SOL    HW175058   4.990   7.836   9.363  1.7559  1.0841 -1.8228
24539SOL    HW275059   5.087   7.805   9.475 -1.3874 -1.0540  0.4809
24540SOL     OW75060   5.317   3.170  10.783  0.1206 -0.0303  0.3885
24540SOL    HW175061   5.222   3.167  10.796 -0.4649  1.4526 -2.5811
24540SOL    HW275062   5.350   3.227  10.852 -1.3008  0.2504  0.8671
24541SOL     OW75063   2.271   7.860  10.249 -0.3503 -0.1719  0.8770
24541SOL    HW175064   2.243   7.848  10.159  1.6088  2.5741 -0.2281
24541SOL    HW275065   2.277   7.955  10.261 -1.1678 -0.3934  4.1454
24542SOL     OW75066   0.556   7.791   1.170  0.1741 -0.0030 -0.7891
24542SOL    HW175067   0.461   7.780   1.170  0.0182  0.9825  1.1292
24542SOL    HW275068   0.589   7.718   1.222  0.1716  1.3312  1.1678
24543SOL     OW75069   1.317   2.109   8.510 -0.1697 -0.4892 -0.2023
24543SOL    HW175070   1.401   2.129   8.551  0.4503 -1.2356 -1.0928
24543SOL    HW275071   1.323   2.017   8.483 -2.0983 -1.2677  1.7001
24544SOL     OW75072   1.534   5.644   5.504 -0.0123 -0.1968 -0.4263
24544SOL    HW175073   1.548   5.633   5.410 -1.0613 -1.4674 -0.4688
24544SOL    HW275074   1.524   5.555   5.538 -0.3219  0.2663  0.7780
24545SOL     OW75075   0.683   2.466   0.608  0.5580 -0.0004  0.2138
24545SOL    HW175076   0.650   2.442   0.522 -1.1703 -0.9042  1.0734
24545SOL    HW275077   0.715   2.384   0.646  1.8532  0.4854  0.2560
24546SOL     OW75078   0.963   5.478   9.162 -0.1817 -0.0184 -0.7837
24546SOL    HW175079   1.014   5.442   9.090  0.7495 -0.9604  0.3095
24546SOL    HW275080   0.929   5.401   9.209  2.1529  0.3727  1.8324
24547SOL     OW75081   4.734   2.798   1.867  0.0734  0.2007  0.6479
24547SOL    HW175082   4.819   2.835   1.843  0.2390 -0.3183  0.4233
24547SOL    HW275083   4.751   2.705   1.882 -0.9407 -0.5555 -2.1980
24548SOL     OW75084   7.866   3.602   0.382 -0.1563 -0.1940  0.1892
24548SOL    HW175085   7.812   3.583   0.305  1.9840 -1.5269 -1.1366
24548SOL    HW275086   7.939   3.654   0.347  0.4156 -0.0916  1.4811
24549SOL     OW75087   4.870   1.086   5.681 -0.2301  0.0772 -0.2429
24549SOL    HW175088   4.839   1.010   5.632 -0.2543 -0.7097  0.9715
24549SOL    HW275089   4.961   1.067   5.701 -0.5199 -0.0981  0.9460
24550SOL     OW75090   7.284   1.034   8.423  1.1550  0.0098 -0.6282
24550SOL    HW175091   7.370   1.074   8.426  1.3586 -0.4411 -0.2120
24550SOL    HW275092   7.248   1.048   8.511  1.5545 -1.3833 -0.2152
24551SOL     OW75093   0.456   0.929   4.355 -0.6107  0.5453 -0.1554
24551SOL    HW175094   0.540   0.909   4.315  0.3853  0.0826  2.0095
24551SOL    HW275095   0.393   0.925   4.283  0.8579 -1.4551 -1.4274
24552SOL     OW75096   1.170   3.751   2.858 -0.0186 -0.5095 -0.3168
24552SOL    HW175097   1.117   3.673   2.844 -1.4049  0.4145 -0.3379
24552SOL    HW275098   1.173   3.762   2.953 -0.5655 -0.0939 -0.3462
24553SOL     OW75099   7.033   4.806   7.115 -0.2767  0.3865  0.0888
24553SOL    HW175100   6.973   4.744   7.156  0.2127 -0.3850 -0.3571
24553SOL    HW275101   7.120   4.767   7.125  0.1679  1.4704  0.6873
24554SOL     OW75102   1.439   2.323  10.582  0.6092  0.1109 -0.1351
24554SOL    HW175103   1.465   2.232  10.565 -2.0075 -0.6440 -0.4227
24554SOL    HW275104   1.463   2.337  10.674  3.3018  0.0310 -0.7285
24555SOL     OW75105   7.473   1.680   3.343  1.2184  0.3704 -0.3795
24555SOL    HW175106   7.441   1.600   3.302  1.6708  1.0623 -2.2257
24555SOL    HW275107   7.395   1.719   3.384  0.7202 -0.3577 -0.6212
24556SOL     OW75108   7.650   6.085  10.938  0.0160  0.4118 -0.1099
24556SOL    HW175109   7.638   6.123  10.851  0.9068 -0.2864 -0.5576
24556SOL    HW275110   7.701   6.005  10.923 -3.0509 -1.8460  0.6204
24557SOL     OW75111   4.527   2.632   7.137  0.5989 -0.0807  0.1770
24557SOL    HW175112   4.592   2.590   7.192  0.0703 -0.9943  0.1182
24557SOL    HW275113   4.460   2.663   7.198  0.9265  0.5852  0.2087
24558SOL     OW75114   2.037   5.586   6.682 -0.2244 -0.0143  0.0765
24558SOL    HW175115   2.127   5.618   6.682 -0.3864  0.4579  0.2978
24558SOL    HW275116   1.992   5.641   6.746 -0.8494  0.2883 -0.5991
24559SOL     OW75117   1.030   4.434   4.031 -0.1577  0.5802  0.1904
24559SOL    HW175118   1.052   4.490   3.957  0.6960 -0.5815 -0.4645
24559SOL    HW275119   1.100   4.369   4.033 -0.6554  0.0579  1.4710
24560SOL     OW75120   3.601   0.434   7.407  0.1416 -0.4563  0.1828
24560SOL    HW175121   3.626   0.475   7.325 -0.3147 -1.0880 -0.2786
24560SOL    HW275122   3.629   0.497   7.474  0.6891 -0.0234 -0.4326
24561SOL     OW75123   4.450   4.741   0.953  0.1242 -0.3309 -0.3238
24561SOL    HW175124   4.465   4.663   0.900  2.5688 -0.4663  0.4490
24561SOL    HW275125   4.502   4.809   0.911  0.2534  0.1513  0.5963
24562SOL     OW75126   5.518   4.629   5.224  0.4103  0.3331  0.3578
24562SOL    HW175127   5.585   4.561   5.224  1.0800  0.9791  0.3673
24562SOL    HW275128   5.567   4.711   5.215 -0.4139  0.7816 -0.2319
24563SOL     OW75129   0.926   3.582   4.694  0.0214 -0.0719 -0.3491
24563SOL    HW175130   0.947   3.490   4.680  0.0272 -0.1722  0.3062
24563SOL    HW275131   0.934   3.621   4.607 -3.9355 -1.4404 -1.5513
24564SOL     OW75132   1.901   3.268   7.899  0.0654  0.2458  0.0321
24564SOL    HW175133   1.947   3.291   7.981 -0.0032  1.2619 -0.1933
24564SOL    HW275134   1.953   3.311   7.831  0.5944 -1.2861 -0.5588
24565SOL     OW75135   0.200   0.015   9.971  0.3836 -0.6388  0.0495
24565SOL    HW175136   0.182   0.107   9.955 -0.8987 -0.4581  2.2006
24565SOL    HW275137   0.239   0.012  10.058 -0.2387 -2.1812  0.3200
24566SOL     OW75138   1.611   0.751   3.510 -0.1015 -0.3126  0.4899
24566SOL    HW175139   1.691   0.774   3.558 -0.9018 -0.8148  2.0977
24566SOL    HW275140   1.555   0.709   3.574 -0.7851 -2.0404 -1.1396
24567SOL     OW75141   2.782   6.427   1.689 -0.3429  0.3227  0.0586
24567SOL    HW175142   2.703   6.469   1.721 -0.3466 -0.4373  1.0751
24567SOL    HW275143   2.753   6.377   1.612 -0.8850 -0.1029  0.5380
24568SOL     OW75144   7.181   5.217  10.892  0.3958  0.1060 -0.5250
24568SOL    HW175145   7.228   5.185  10.969 -0.7342  0.1979  0.2217
24568SOL    HW275146   7.198   5.151  10.824 -0.0041 -0.8858  0.3123
24569SOL     OW75147   7.502   3.945   9.362  0.5684  0.1129  0.5033
24569SOL    HW175148   7.553   3.891   9.423 -0.2355  1.3346  2.3675
24569SOL    HW275149   7.415   3.948   9.401 -0.0338  0.8169 -0.8308
24570SOL     OW75150   2.098   4.591   2.723 -0.1986 -0.4753  0.1830
24570SOL    HW175151   2.064   4.502   2.708 -0.9813  0.0379 -1.2443
24570SOL    HW275152   2.021   4.647   2.713  0.4772  0.4467  0.0969
24571SOL     OW75153   6.880   1.790   8.040 -0.1444  0.1369 -0.2015
24571SOL    HW175154   6.865   1.701   8.007  0.0092  0.2781 -0.6594
24571SOL    HW275155   6.830   1.794   8.121  1.7785 -1.1940  1.1569
24572SOL     OW75156   4.341   2.128   0.085  0.1579 -0.4289  0.2246
24572SOL    HW175157   4.369   2.203   0.033  1.5167 -1.2373 -0.2343
24572SOL    HW275158   4.334   2.163   0.175  1.5759  0.0580  0.1646
24573SOL     OW75159   5.791   2.069   4.076 -0.3276  0.2989  0.4318
24573SOL    HW175160   5.790   2.105   3.988  0.6589 -1.5231 -0.3804
24573SOL    HW275161   5.707   2.024   4.085  0.1286 -0.7046 -0.1408
24574SOL     OW75162   4.881   5.801   7.407  0.6941  0.0170 -0.4137
24574SOL    HW175163   4.794   5.805   7.447  0.8520 -0.2153 -0.0350
24574SOL    HW275164   4.868   5.753   7.325  0.5500 -0.4695 -0.1125
24575SOL     OW75165   0.983   1.883   5.323  0.2148  0.4060 -0.5328
24575SOL    HW175166   0.921   1.839   5.382  0.3401  2.2306  1.0508
24575SOL    HW275167   0.929   1.910   5.249  0.0493 -1.9205 -1.3566
24576SOL     OW75168   7.450   2.299   4.880 -0.2718 -0.2490 -0.3447
24576SOL    HW175169   7.513   2.368   4.899  0.9199 -1.2832 -0.4275
24576SOL    HW275170   7.381   2.311   4.945  1.4060 -0.8203  1.6557
24577SOL     OW75171   7.367   1.519   2.881  0.7541  0.2535  0.2026
24577SOL    HW175172   7.375   1.424   2.868 -0.5734 -0.2356  2.4680
24577SOL    HW275173   7.455   1.548   2.903  0.8169 -0.8751  1.5900
24578SOL     OW75174   0.657   3.901  11.148 -0.0077 -0.3638 -0.3383
24578SOL    HW175175   0.601   3.921  11.073 -0.9080  1.7537  0.8225
24578SOL    HW275176   0.603   3.844  11.203  0.1469 -0.8206 -0.6563
24579SOL     OW75177   4.988   5.212  11.292  0.5390  0.3496  0.3729
24579SOL    HW175178   4.997   5.213  11.197  0.6402  1.6173  0.3751
24579SOL    HW275179   4.895   5.230  11.306  0.8149  1.7982  0.5108
24580SOL     OW75180   5.195   5.779  10.569 -0.6896 -0.1481 -0.4038
24580SOL    HW175181   5.236   5.695  10.549  0.1655  0.4527 -1.2312
24580SOL    HW275182   5.129   5.790  10.501 -1.0381 -0.3038 -0.0932
24581SOL     OW75183   3.923   3.773  10.909  0.1564 -0.2779  0.0791
24581SOL    HW175184   3.839   3.815  10.929  0.9454  1.4640 -0.0863
24581SOL    HW275185   3.929   3.775  10.814 -0.1186 -1.5177  0.0087
24582SOL     OW75186   3.147   1.737   7.019 -0.2308 -0.3224 -0.1937
24582SOL    HW175187   3.224   1.701   7.062 -0.4257 -1.5152 -0.8129
24582SOL    HW275188   3.173   1.748   6.927 -0.2095  1.0642 -0.0567
24583SOL     OW75189   3.785   3.843  11.644 -0.3486  0.4191  0.1110
24583SOL    HW175190   3.873   3.845  11.680 -0.6338  0.0944  0.8316
24583SOL    HW275191   3.751   3.931  11.656 -0.8152  0.0566  1.5884
24584SOL     OW75192   6.431   3.888   3.267 -0.4819  0.3917 -0.2031
24584SOL    HW175193   6.433   3.980   3.290  0.3916  0.3120  0.0709
24584SOL    HW275194   6.523   3.864   3.253 -0.6283 -0.6136  0.4658
24585SOL     OW75195   6.200   3.596   3.893  0.0251 -0.0748 -1.1456
24585SOL    HW175196   6.227   3.569   3.981 -0.5397 -2.4489 -1.6361
24585SOL    HW275197   6.280   3.591   3.841  0.7289  2.8810 -0.5363
24586SOL     OW75198   0.158   5.159   2.540 -0.1529 -0.1957 -0.5272
24586SOL    HW175199   0.138   5.071   2.572 -0.3877 -0.0500 -0.2766
24586SOL    HW275200   0.076   5.191   2.503  0.3865 -0.8250 -2.3961
24587SOL     OW75201   3.069   6.385  10.040  0.1059 -0.2371  0.2648
24587SOL    HW175202   3.128   6.460  10.035  1.1155 -1.0680 -0.6664
24587SOL    HW275203   3.126   6.309  10.031 -0.7591 -1.1936  2.2376
24588SOL     OW75204   1.443   5.722   2.434 -0.2470 -0.4638  0.8680
24588SOL    HW175205   1.360   5.707   2.388  0.8048 -0.8380 -1.0006
24588SOL    HW275206   1.489   5.787   2.381  1.9849 -2.5761  0.0239
24589SOL     OW75207   4.950   2.540   2.945 -0.1715  0.0057  0.2281
24589SOL    HW175208   4.907   2.611   2.898 -1.0345 -0.9851 -0.5376
24589SOL    HW275209   5.026   2.518   2.891 -0.1846  0.0154  0.2056
24590SOL     OW75210   6.804   1.755   7.727 -0.2741  0.1361 -0.0468
24590SOL    HW175211   6.795   1.830   7.667  1.1976 -0.2082 -0.7365
24590SOL    HW275212   6.872   1.781   7.789 -0.7467 -0.0974  0.5860
24591SOL     OW75213   1.685   4.633   2.991  0.3260  0.1055  0.6203
24591SOL    HW175214   1.691   4.598   2.902  1.9498 -0.8791  1.0813
24591SOL    HW275215   1.599   4.676   2.993 -0.6333 -1.5626 -0.8040
24592SOL     OW75216   5.138   1.405  11.907  0.1447 -0.3397  0.8025
24592SOL    HW175217   5.065   1.445  11.859 -1.2570 -2.6390  0.8583
24592SOL    HW275218   5.140   1.452  11.990  0.0878  1.1215  0.0223
24593SOL     OW75219   4.962   6.756   8.189  0.9619  0.1143  0.1647
24593SOL    HW175220   4.976   6.831   8.131 -0.7826 -0.9222 -1.7473
24593SOL    HW275221   4.938   6.795   8.273  0.6313  1.7013 -0.6184
24594SOL     OW75222   1.469   0.601   5.535 -0.4321  0.0978 -0.5180
24594SOL    HW175223   1.454   0.550   5.614 -2.0977  1.3687  0.0553
24594SOL    HW275224   1.564   0.614   5.532 -0.3749  0.6375  1.7029
24595SOL     OW75225   3.790   3.037  12.284  0.4038  0.3008  0.1886
24595SOL    HW175226   3.736   2.994  12.218 -0.7101 -1.3649  2.0951
24595SOL    HW275227   3.808   2.970  12.349  0.9142  2.0366  1.9353
24596SOL     OW75228   3.359   1.440   1.463 -0.5269 -0.6017  0.3231
24596SOL    HW175229   3.266   1.427   1.445 -0.5936 -0.6479  0.6991
24596SOL    HW275230   3.361   1.507   1.531 -0.2684 -0.3100  0.0286
24597SOL     OW75231   6.770   7.889   3.876  0.2976  0.2971  0.6145
24597SOL    HW175232   6.747   7.874   3.785  0.4849 -1.4693  0.8284
24597SOL    HW275233   6.752   7.982   3.890  0.6579  0.7028 -1.3165
24598SOL     OW75234   4.543   0.705  11.450 -0.5475 -0.3263 -0.2505
24598SOL    HW175235   4.626   0.677  11.487 -1.6574 -0.7222  2.1159
24598SOL    HW275236   4.562   0.721  11.358  1.8553 -1.5267 -0.0339
24599SOL     OW75237   3.181   4.232   8.099  0.2611 -0.4294  0.0243
24599SOL    HW175238   3.151   4.248   8.189  0.1701  2.0716 -0.3638
24599SOL    HW275239   3.277   4.227   8.107  0.5115  2.3924  0.0734
24600SOL     OW75240   0.053   1.815   8.247  0.4232 -0.1400 -0.1697
24600SOL    HW175241  -0.012   1.797   8.315  0.3460  2.6319  0.6070
24600SOL    HW275242   0.055   1.735   8.194 -0.7459 -1.7551  2.0599
24601SOL     OW75243   6.303   0.644   5.254 -0.2999  0.4227 -0.0550
24601SOL    HW175244   6.360   0.608   5.186 -2.2530  0.3401 -1.7350
24601SOL    HW275245   6.356   0.712   5.296  1.8740 -1.2841  0.1600
24602SOL     OW75246   7.947   2.488   1.628  0.0486  0.0209  0.1545
24602SOL    HW175247   8.016   2.459   1.689 -0.7785 -2.8282 -0.1353
24602SOL    HW275248   7.868   2.492   1.682 -0.2201 -0.1836 -0.2183
24603SOL     OW75249   2.411   0.241   9.965  0.6470  0.2274 -0.0368
24603SOL    HW175250   2.446   0.312   9.911  1.1797 -0.5122 -0.6991
24603SOL    HW275251   2.317   0.259   9.971  0.6393  0.5264 -0.9253
24604SOL     OW75252   0.764   2.383   8.314 -0.0716 -0.2567 -0.1766
24604SOL    HW175253   0.854   2.402   8.340 -0.1866 -0.6222  0.5059
24604SOL    HW275254   0.720   2.467   8.315 -0.6458 -0.4810  3.0574
24605SOL     OW75255   2.707   2.736   9.765  0.6961 -0.2779  0.1679
24605SOL    HW175256   2.786   2.736   9.711 -0.6102 -0.4341 -1.8064
24605SOL    HW275257   2.696   2.644   9.791  1.5602 -0.1350  1.1310
24606SOL     OW75258   5.487   6.447   7.272  0.5307  0.5393 -0.5291
24606SOL    HW175259   5.394   6.423   7.264  1.0621 -1.6583 -0.7058
24606SOL    HW275260   5.516   6.460   7.182  0.6705  0.0777 -0.5504
24607SOL     OW75261   1.072   5.751   9.953 -0.1073  0.6881  0.5224
24607SOL    HW175262   1.119   5.668   9.950  0.5512  1.0027  1.7321
24607SOL    HW275263   0.979   5.725   9.957 -0.2043  0.0745 -2.7176
24608SOL     OW75264   6.353   4.530   4.869  0.0712 -0.3637 -0.2848
24608SOL    HW175265   6.314   4.537   4.956  0.2263 -1.4482 -0.1064
24608SOL    HW275266   6.283   4.554   4.809 -0.2863 -0.4107  0.1084
24609SOL     OW75267   4.320   4.810   8.282 -0.2163  0.3827 -0.0559
24609SOL    HW175268   4.230   4.840   8.299 -1.4382 -1.5469 -2.6036
24609SOL    HW275269   4.354   4.789   8.369 -2.5449  0.2974  0.9119
24610SOL     OW75270   2.602   3.174   6.009  0.4626 -0.5587 -0.2754
24610SOL    HW175271   2.673   3.110   6.014  0.0313 -1.1041 -0.9527
24610SOL    HW275272   2.603   3.202   5.917 -0.4046 -0.8024 -0.3591
24611SOL     OW75273   5.184   6.179   1.684  0.1355 -0.3278  0.5406
24611SOL    HW175274   5.117   6.216   1.741  0.5948 -0.8647  1.4470
24611SOL    HW275275   5.148   6.097   1.653 -0.2635  0.1359 -0.2545
24612SOL     OW75276   1.663   2.310  11.363  0.0065 -0.3393  0.5524
24612SOL    HW175277   1.674   2.395  11.405 -1.3297  0.8078 -1.2318
24612SOL    HW275278   1.609   2.259  11.424  0.7915  0.0784  1.6194
24613SOL     OW75279   3.044   0.465   2.794  0.3958 -0.4282  1.0484
24613SOL    HW175280   3.122   0.446   2.847 -0.2378 -0.4078  2.0175
24613SOL    HW275281   2.989   0.517   2.851 -0.4456 -0.6614  0.4625
24614SOL     OW75282   3.847   2.630   8.795 -0.2318  0.5313  0.1496
24614SOL    HW175283   3.917   2.602   8.854  0.6268  2.0215 -0.1344
24614SOL    HW275284   3.877   2.604   8.708 -0.7844 -0.2621  0.1851
24615SOL     OW75285   1.509   4.375  12.256  0.0313  0.3066 -0.2031
24615SOL    HW175286   1.563   4.454  12.262  0.3920  0.0949 -0.6038
24615SOL    HW275287   1.487   4.368  12.163 -1.4621  0.8965  0.0619
24616SOL     OW75288   2.523   2.022   8.896  0.4647 -0.1222  0.0724
24616SOL    HW175289   2.462   2.093   8.877 -0.3772 -1.3611 -2.3448
24616SOL    HW275290   2.582   2.057   8.963 -3.1248  0.9867  3.0107
24617SOL     OW75291   3.641   7.270   5.989  0.4892  0.8840  0.0696
24617SOL    HW175292   3.620   7.329   6.062 -0.2327  1.1152 -0.3151
24617SOL    HW275293   3.691   7.199   6.029 -0.3548  0.7350  0.8739
24618SOL     OW75294   3.321   1.911   2.047 -0.3218 -0.8120  0.9089
24618SOL    HW175295   3.339   1.993   2.094 -0.7422 -0.2594  0.1264
24618SOL    HW275296   3.307   1.847   2.116 -1.5077  0.1115  1.5814
24619SOL     OW75297   6.827   2.376   8.569 -0.3787 -0.2607 -0.0161
24619SOL    HW175298   6.847   2.436   8.497  1.6241  0.3091  0.9344
24619SOL    HW275299   6.734   2.389   8.587  0.2182  3.6196  1.0517
24620SOL     OW75300   6.373   2.992   9.519 -0.2580 -0.1475 -0.3117
24620SOL    HW175301   6.323   2.972   9.599  0.7014 -0.2298  0.2880
24620SOL    HW275302   6.377   3.087   9.516  1.7929 -0.1151  1.1366
24621SOL     OW75303   7.527   5.194   5.976  0.6792  0.0242 -0.3603
24621SOL    HW175304   7.459   5.141   6.017  0.7240  0.0594 -0.2405
24621SOL    HW275305   7.584   5.220   6.048 -1.1757  3.0741  0.1944
24622SOL     OW75306   7.964   4.332  10.597 -0.3354  0.4194  0.0733
24622SOL    HW175307   7.904   4.295  10.533  1.1124 -0.4977 -0.8225
24622SOL    HW275308   7.937   4.423  10.606 -0.7823  0.4871 -1.6004
24623SOL     OW75309   3.765   5.500   7.686 -0.4469  0.4354 -0.4133
24623SOL    HW175310   3.809   5.474   7.767  0.5618 -1.1437 -1.4065
24623SOL    HW275311   3.720   5.581   7.708 -0.9768 -0.4238  1.9849
24624SOL     OW75312   2.699   1.271   4.996  0.3377  0.8431  0.1067
24624SOL    HW175313   2.782   1.248   5.036  1.0936  1.6244 -0.9650
24624SOL    HW275314   2.635   1.212   5.037  1.1872  1.0844  1.8632
24625SOL     OW75315   7.454   1.152   0.998  0.7908  0.7695  0.2855
24625SOL    HW175316   7.508   1.088   0.952  0.6772  0.8159  0.0874
24625SOL    HW275317   7.457   1.124   1.090  2.4080  1.6604  0.5354
24626SOL     OW75318   3.817   0.816   1.473 -0.4210  0.0947  0.2723
24626SOL    HW175319   3.731   0.859   1.482 -0.4287  0.0730  0.3055
24626SOL    HW275320   3.801   0.726   1.499  0.0325  0.5405  2.3169
24627SOL     OW75321   1.663   5.868   7.497 -0.0658  0.0381 -0.7559
24627SOL    HW175322   1.625   5.908   7.419  1.3983  2.3219 -0.3904
24627SOL    HW275323   1.653   5.935   7.565 -1.3661 -1.9103  1.0797
24628SOL     OW75324   4.412   4.087   4.437  0.1858  0.0261  0.4839
24628SOL    HW175325   4.347   4.154   4.461  1.0851  0.7619  0.9437
24628SOL    HW275326   4.362   4.022   4.388 -0.8799  0.6219  0.7380
24629SOL     OW75327   1.232   3.220   7.215  0.1490 -0.3854 -0.5439
24629SOL    HW175328   1.164   3.153   7.202  0.5830 -0.8061 -0.6722
24629SOL    HW275329   1.223   3.246   7.306  0.4568 -1.1547 -0.2887
24630SOL     OW75330   3.975   4.029   6.193  0.1657 -0.1723 -0.0589
24630SOL    HW175331   3.985   4.123   6.207 -0.3169  0.0909 -1.3187
24630SOL    HW275332   3.974   4.019   6.098  3.0951 -1.7838 -0.0419
24631SOL     OW75333   2.419   4.278   2.178 -0.7832  0.1591 -0.1729
24631SOL    HW175334   2.415   4.365   2.216  0.8330  1.3583 -2.5303
24631SOL    HW275335   2.402   4.291   2.085 -1.4651 -2.1867 -0.4464
24632SOL     OW75336   2.306   3.877   0.587 -0.1485 -0.4651 -0.1748
24632SOL    HW175337   2.311   3.925   0.504 -1.4008 -0.4563 -0.2628
24632SOL    HW275338   2.251   3.801   0.567  1.3560 -1.6775  0.1002
24633SOL     OW75339   7.806   1.880  11.294  0.0288  0.2896  0.5795
24633SOL    HW175340   7.849   1.859  11.376  1.0277  0.1601  0.0455
24633SOL    HW275341   7.864   1.844  11.226 -0.1623  1.3914 -0.2141
24634SOL     OW75342   7.854   4.653   5.920  0.3586 -0.2589  0.2654
24634SOL    HW175343   7.888   4.659   5.830  1.4201 -1.4296  0.5648
24634SOL    HW275344   7.932   4.659   5.975 -0.4330  2.2250  1.2322
24635SOL     OW75345   2.996   1.640   8.147  0.1687 -0.1624  0.2374
24635SOL    HW175346   3.039   1.556   8.163  0.4242  0.0462  0.6597
24635SOL    HW275347   2.921   1.641   8.206 -0.8898 -0.8533 -1.0388
24636SOL     OW75348   6.495   7.830   8.887 -0.4899 -0.0519 -0.4787
24636SOL    HW175349   6.465   7.855   8.975 -1.5380  0.6028 -0.9988
24636SOL    HW275350   6.497   7.912   8.838  2.9779  0.0979 -0.3110
24637SOL     OW75351   0.487   3.756   0.413 -0.0805  0.5834  0.0399
24637SOL    HW175352   0.427   3.829   0.395  0.0192  0.7099  0.2190
24637SOL    HW275353   0.432   3.690   0.456 -0.5631 -0.1580 -1.6586
24638SOL     OW75354   6.549   1.156   8.504 -0.6282 -0.6754  1.2294
24638SOL    HW175355   6.537   1.088   8.570 -0.8405 -1.1248  0.7267
24638SOL    HW275356   6.601   1.115   8.435 -0.3404 -0.1857  1.1451
24639SOL     OW75357   3.753   5.482   5.384  0.1049  0.8137  0.3456
24639SOL    HW175358   3.837   5.465   5.427 -0.1917  0.5620  0.8237
24639SOL    HW275359   3.688   5.475   5.453 -0.3937  0.2950 -0.1670
24640SOL     OW75360   0.654   2.118   1.764 -0.0340  0.7263 -0.1668
24640SOL    HW175361   0.612   2.071   1.692 -0.6538  2.5186 -1.0300
24640SOL    HW275362   0.747   2.119   1.740  0.5345 -2.5153  1.3339
24641SOL     OW75363   3.482   7.340   8.200  0.4334 -0.1385  0.3723
24641SOL    HW175364   3.491   7.356   8.294  1.3555 -0.3731  0.3293
24641SOL    HW275365   3.396   7.376   8.178  1.2736  2.3562  0.8122
24642SOL     OW75366   0.294   2.665   3.408  0.0712  0.0804  0.0659
24642SOL    HW175367   0.352   2.589   3.404 -0.1587 -0.2150  1.7615
24642SOL    HW275368   0.347   2.737   3.372  1.5975 -0.1443  1.7376
24643SOL     OW75369   2.946   0.194   0.167 -0.1130 -0.0192 -0.1964
24643SOL    HW175370   2.894   0.261   0.123  0.1440 -0.2487 -0.8688
24643SOL    HW275371   2.996   0.152   0.096  1.4994  0.6438  0.4902
24644SOL     OW75372   0.941   2.588   7.698  0.5976  0.4823  0.5154
24644SOL    HW175373   0.954   2.552   7.786 -3.4035 -0.2264  0.9978
24644SOL    HW275374   0.886   2.665   7.712 -0.5245  0.0825 -1.3696
24645SOL     OW75375   0.026   6.838   7.095 -0.1873  0.1034 -0.2826
24645SOL    HW175376   0.054   6.859   7.184  2.7521 -1.9533 -0.5904
24645SOL    HW275377  -0.026   6.758   7.105  3.2595 -2.4090 -0.5325
24646SOL     OW75378   7.210   6.006   4.846  0.0254  0.0340 -0.1080
24646SOL    HW175379   7.227   5.965   4.761  1.4113  0.2337  0.0490
24646SOL    HW275380   7.294   6.002   4.892 -1.0468 -1.4023  1.8633
24647SOL     OW75381   5.088   7.903   5.668  0.1941 -0.0748 -0.3656
24647SOL    HW175382   5.128   7.816   5.677 -1.8045 -0.9435  1.0412
24647SOL    HW275383   5.009   7.887   5.616 -1.1737  0.4917  1.4254
24648SOL     OW75384   3.906   0.384   7.978 -0.1639 -0.3228  0.6164
24648SOL    HW175385   3.919   0.343   8.064  0.6642 -0.0910  0.6071
24648SOL    HW275386   3.881   0.474   7.998  1.1859  0.0694  0.6200
24649SOL     OW75387   5.471   1.114  11.096 -0.2456  0.4967  0.0757
24649SOL    HW175388   5.488   1.036  11.044  0.1220  0.8330 -0.3232
24649SOL    HW275389   5.510   1.095  11.182 -1.7056 -0.4413  0.5573
24650SOL     OW75390   6.654   6.563   0.252 -0.2453  0.3032 -0.4709
24650SOL    HW175391   6.730   6.604   0.293  0.6544 -0.6482 -1.1524
24650SOL    HW275392   6.644   6.480   0.299 -0.1798 -0.0771 -1.1245
24651SOL     OW75393   3.950   3.500   7.971 -0.1043  0.3484  0.0073
24651SOL    HW175394   3.978   3.412   7.947 -0.8392  0.3782 -1.0054
24651SOL    HW275395   3.887   3.487   8.042 -0.8704 -0.0145 -0.7213
24652SOL     OW75396   4.107   6.186   1.026 -0.1246  0.2019 -0.6842
24652SOL    HW175397   4.201   6.170   1.016 -0.2362 -0.6708 -0.4165
24652SOL    HW275398   4.080   6.218   0.940  0.1187 -1.1302 -1.2881
24653SOL     OW75399   2.680   0.875  11.615 -0.3948 -0.2027 -0.0630
24653SOL    HW175400   2.743   0.821  11.566 -0.2361 -0.4447  0.4005
24653SOL    HW275401   2.688   0.844  11.705 -0.3072  0.6013  0.2110
24654SOL     OW75402   5.537   7.310   6.751 -0.0500  0.3075  0.0486
24654SOL    HW175403   5.559   7.239   6.811  0.6820 -0.3071 -0.9152
24654SOL    HW275404   5.620   7.332   6.709 -0.6517  0.2915 -1.1867
24655SOL     OW75405   1.131   1.724   4.926  0.0169  0.8326  0.1261
24655SOL    HW175406   1.218   1.752   4.954 -0.3685  1.4626  0.7301
24655SOL    HW275407   1.113   1.777   4.848 -0.1776  1.3580  0.5173
24656SOL     OW75408   7.081   1.487   4.665  0.1495 -0.2599  0.3684
24656SOL    HW175409   7.039   1.496   4.750 -2.5865  1.3803 -1.0296
24656SOL    HW275410   7.069   1.572   4.623  0.9234 -1.1800 -1.8709
24657SOL     OW75411   0.672   5.059   7.305  0.6335  0.0376 -0.8487
24657SOL    HW175412   0.730   5.036   7.378 -1.3528 -0.0974  0.7711
24657SOL    HW275413   0.730   5.063   7.229  3.3615  2.9208  1.1082
24658SOL     OW75414   7.277   0.802   1.236  0.0901  0.0395 -0.0978
24658SOL    HW175415   7.345   0.852   1.280  0.1262  1.2700 -1.4601
24658SOL    HW275416   7.307   0.795   1.146 -1.3663  0.2518 -0.6324
24659SOL     OW75417   6.527   6.227  11.746 -0.1187 -0.2493  0.0199
24659SOL    HW175418   6.441   6.240  11.704 -0.1851  1.5365  0.6337
24659SOL    HW275419   6.568   6.159  11.694 -2.0137 -1.3483 -0.1374
24660SOL     OW75420   2.105   0.859  10.021  0.6027  0.1832 -0.0351
24660SOL    HW175421   2.114   0.950   9.994 -0.4797  0.6014  0.9267
24660SOL    HW275422   2.173   0.813   9.973  2.3494  1.7802  0.7832
24661SOL     OW75423   5.248   7.742   4.413  0.2928 -0.3215  0.1541
24661SOL    HW175424   5.171   7.723   4.467 -0.8114  0.3814 -1.0976
24661SOL    HW275425   5.298   7.806   4.463  0.2773 -1.0702  1.1586
24662SOL     OW75426   2.775   4.072   9.644 -0.2049  0.2957 -0.3653
24662SOL    HW175427   2.740   4.002   9.590  0.8071  0.7790 -1.6933
24662SOL    HW275428   2.855   4.037   9.682  0.1312  0.6196 -0.7706
24663SOL     OW75429   7.382   2.754   6.395  0.4019 -0.0514 -0.1618
24663SOL    HW175430   7.293   2.722   6.383  0.0983  0.4249  0.7325
24663SOL    HW275431   7.404   2.732   6.485  1.0791  0.1066 -0.2774
24664SOL     OW75432   0.785   5.773   9.236  0.0733 -0.6693 -0.0582
24664SOL    HW175433   0.834   5.809   9.162 -1.4890 -1.4391 -1.5489
24664SOL    HW275434   0.738   5.848   9.272  0.9733 -0.2557  0.2967
24665SOL     OW75435   1.298   6.994   8.522  0.1549 -0.5299 -0.2264
24665SOL    HW175436   1.242   7.070   8.541 -0.1744 -0.3730 -1.7382
24665SOL    HW275437   1.253   6.921   8.564  1.8846  0.4266  3.7231
24666SOL     OW75438   6.466   7.912   7.480  0.3180  0.0736  0.2339
24666SOL    HW175439   6.533   7.886   7.543 -1.6499 -2.4742  1.4885
24666SOL    HW275440   6.475   7.851   7.407  0.0885  0.4254 -0.0921
24667SOL     OW75441   5.585   5.774   5.955 -0.7033  1.0532 -0.4030
24667SOL    HW175442   5.557   5.734   6.037 -1.8071  0.2134 -1.1545
24667SOL    HW275443   5.503   5.804   5.914 -0.3269  0.3515 -1.7464
24668SOL     OW75444   3.775   1.179   6.896 -0.2727 -0.5239  0.5722
24668SOL    HW175445   3.830   1.117   6.944  1.2527  0.9754  0.8465
24668SOL    HW275446   3.835   1.247   6.867 -1.8950  0.8621  0.3054
24669SOL     OW75447   4.135   5.312   4.616  0.0095 -0.5951  0.1701
24669SOL    HW175448   4.072   5.299   4.544 -2.1057 -1.7428  2.0868
24669SOL    HW275449   4.214   5.267   4.587  0.6924  2.2606 -3.0384
24670SOL     OW75450   2.598   5.199   6.266 -0.1207 -0.6051  0.4640
24670SOL    HW175451   2.532   5.139   6.232 -0.5286 -0.3145  0.7205
24670SOL    HW275452   2.681   5.169   6.229 -0.2650 -1.5396  0.8667
24671SOL     OW75453   1.026   7.558   3.648 -0.2990  0.0779 -0.0224
24671SOL    HW175454   0.985   7.512   3.721 -1.5311 -0.4019 -0.9792
24671SOL    HW275455   1.035   7.648   3.678  2.4794 -0.7449  2.0238
24672SOL     OW75456   7.774   1.700   1.414 -0.1597  0.3721 -0.0461
24672SOL    HW175457   7.763   1.651   1.332  0.3822 -1.7409  1.0585
24672SOL    HW275458   7.774   1.633   1.482 -1.5006  2.1452  1.8072
24673SOL     OW75459   6.542   6.126   4.580  0.1211 -1.0920  0.2015
24673SOL    HW175460   6.581   6.143   4.666  1.3140  0.3849 -0.5894
24673SOL    HW275461   6.486   6.202   4.563 -0.2799 -1.4772 -0.2285
24674SOL     OW75462   6.391   0.314   6.011 -0.2030  0.1053 -0.5495
24674SOL    HW175463   6.444   0.291   5.935 -1.6141  0.2237 -1.6057
24674SOL    HW275464   6.443   0.381   6.056 -0.2399  1.5781 -2.5498
24675SOL     OW75465   1.630   2.013   2.866  0.0090  0.7225  0.1379
24675SOL    HW175466   1.541   1.979   2.855  0.0767  0.0886  1.3449
24675SOL    HW275467   1.653   2.047   2.780 -0.9723 -0.1366 -0.5003
24676SOL     OW75468   6.834   0.688   5.337 -0.0431  0.3935 -0.2892
24676SOL    HW175469   6.902   0.624   5.358 -0.7018 -0.3623 -0.4032
24676SOL    HW275470   6.767   0.675   5.404  0.0158  1.2914 -0.0411
24677SOL     OW75471   4.346   7.079   2.985 -0.1177  0.2865  0.2821
24677SOL    HW175472   4.259   7.040   2.975 -0.0503  0.1035  0.4074
24677SOL    HW275473   4.407   7.007   2.968  0.0056  0.1790  1.1378
24678SOL     OW75474   7.121   6.085   6.881  0.2155  0.1148 -0.2771
24678SOL    HW175475   7.052   6.074   6.816 -0.3948  0.0633  0.3722
24678SOL    HW275476   7.181   6.149   6.841 -0.0193 -0.0949 -0.9878
24679SOL     OW75477   7.213   0.007   3.243 -0.3429  0.3048 -0.4303
24679SOL    HW175478   7.180   0.095   3.262  0.2536  0.5680 -0.6038
24679SOL    HW275479   7.308   0.018   3.236 -0.2204 -0.4264 -0.0329
24680SOL     OW75480   7.416   1.726   0.627  0.3084  0.2165 -0.4294
24680SOL    HW175481   7.322   1.722   0.644  0.5283  0.7157  1.1052
24680SOL    HW275482   7.423   1.737   0.532 -1.1657  0.0617 -0.5866
24681SOL     OW75483   0.660   2.636   8.260 -0.0691 -0.2887  0.0591
24681SOL    HW175484   0.693   2.725   8.276 -2.0834  0.2483  1.7435
24681SOL    HW275485   0.570   2.650   8.229 -0.3156 -1.7382  0.0883
24682SOL     OW75486   4.433   0.501   6.905  0.0415  0.8687 -0.5877
24682SOL    HW175487   4.485   0.558   6.962  0.6997 -0.7269  0.4545
24682SOL    HW275488   4.408   0.428   6.960 -1.5424  0.5479 -1.6638
24683SOL     OW75489   1.799   6.423   8.100 -0.4161  0.8821 -0.2589
24683SOL    HW175490   1.795   6.402   8.194  0.1392  2.0176  0.0387
24683SOL    HW275491   1.793   6.519   8.097  0.5695  0.9272 -1.3198
24684SOL     OW75492   0.969   2.291   3.922 -0.0515 -0.0323 -0.0087
24684SOL    HW175493   0.938   2.257   3.837  0.3522 -1.8395  0.5336
24684SOL    HW275494   0.991   2.213   3.973 -0.5494  0.9991  1.8843
24685SOL     OW75495   1.398   4.143   4.746  0.3641 -0.3060 -0.3376
24685SOL    HW175496   1.415   4.050   4.761 -1.2297 -0.4694  0.7067
24685SOL    HW275497   1.431   4.186   4.825 -2.0994 -0.4346  0.8643
24686SOL     OW75498   0.727   5.568   8.347  0.3020 -0.8066  0.2158
24686SOL    HW175499   0.734   5.631   8.275 -1.2213 -0.4174  0.3577
24686SOL    HW275500   0.708   5.485   8.303  1.2767 -0.9659  0.0814
24687SOL     OW75501   6.311   2.561   7.058 -0.0204  0.5273  0.0983
24687SOL    HW175502   6.251   2.632   7.039  0.8988  1.2516 -0.1651
24687SOL    HW275503   6.376   2.564   6.987  0.1633 -0.4285  0.2057
24688SOL     OW75504   3.498   1.015  12.260  0.0989 -0.1487 -0.4851
24688SOL    HW175505   3.418   0.984  12.219  0.2543 -0.1960 -0.7540
24688SOL    HW275506   3.566   1.000  12.195  0.6275 -1.7596  0.3883
24689SOL     OW75507   2.364   3.314   6.296 -0.1925 -0.5025 -0.4402
24689SOL    HW175508   2.392   3.337   6.208  1.0367 -0.0948  0.0392
24689SOL    HW275509   2.437   3.264   6.333 -0.0010  0.6712  0.8772
24690SOL     OW75510   4.674   7.866   3.293  0.3883  0.1390 -0.0023
24690SOL    HW175511   4.646   7.781   3.329  0.1184  0.8718  1.5778
24690SOL    HW275512   4.769   7.862   3.292  0.4328  0.4192  1.6345
24691SOL     OW75513   5.048   2.373   4.118  0.0392 -0.7394 -0.1508
24691SOL    HW175514   5.000   2.348   4.197 -1.9766 -1.8859 -1.6510
24691SOL    HW275515   5.004   2.327   4.047 -0.5590  2.9846 -2.4680
24692SOL     OW75516   2.520   2.408   9.233  0.5543  0.4728  0.3552
24692SOL    HW175517   2.480   2.450   9.157  1.2824  0.1579 -0.2216
24692SOL    HW275518   2.611   2.393   9.206  0.0680 -2.5967  0.0056
24693SOL     OW75519   4.693   2.534   4.611 -0.2464  0.9071 -0.2048
24693SOL    HW175520   4.734   2.591   4.677  0.6045  0.3834 -0.2693
24693SOL    HW275521   4.685   2.590   4.534  1.8767  0.5767 -0.7114
24694SOL     OW75522   6.975   1.028   9.841 -0.1244  0.1917 -0.8733
24694SOL    HW175523   7.038   1.081   9.792  1.2489 -0.5902 -0.0214
24694SOL    HW275524   6.991   1.051   9.933 -0.0264 -1.1179 -0.5468
24695SOL     OW75525   2.037   2.543   8.779  0.0367  0.6538  0.1011
24695SOL    HW175526   2.075   2.597   8.848  1.7614  0.0022 -0.2953
24695SOL    HW275527   2.112   2.499   8.739 -1.2380 -1.7763  0.1780
24696SOL     OW75528   1.643   3.885  10.059 -0.0515  0.1748 -0.2625
24696SOL    HW175529   1.736   3.877  10.079  0.4444 -0.4426 -2.4886
24696SOL    HW275530   1.640   3.903   9.965 -2.2033 -1.1613 -0.5285
24697SOL     OW75531   4.497   4.324   7.069 -0.1263  0.2057  0.3669
24697SOL    HW175532   4.538   4.341   7.154  0.7761  1.7665 -0.3371
24697SOL    HW275533   4.570   4.305   7.010 -0.7775 -1.4621  0.0174
24698SOL     OW75534   1.251   3.358   7.468 -0.1385  0.2749  0.1728
24698SOL    HW175535   1.200   3.429   7.506 -1.1905 -0.1029 -0.4938
24698SOL    HW275536   1.264   3.296   7.540 -4.7588 -1.9620 -0.5320
24699SOL     OW75537   5.482   2.075   6.208 -0.1013  0.8448 -0.0867
24699SOL    HW175538   5.480   2.014   6.282  4.1532 -0.3323 -0.6839
24699SOL    HW275539   5.426   2.034   6.142 -2.0154  0.6896  1.5311
24700SOL     OW75540   3.058   1.561   3.405 -0.5030 -0.3878  0.3091
24700SOL    HW175541   3.113   1.585   3.480 -1.2919  0.3133  0.6864
24700SOL    HW275542   3.096   1.609   3.331 -0.2294 -0.4098  0.4355
24701SOL     OW75543   3.550   6.494   7.104 -0.2311 -0.1284 -0.0556
24701SOL    HW175544   3.620   6.522   7.045  0.3535  0.1197  0.7329
24701SOL    HW275545   3.511   6.576   7.135 -0.0171 -0.2299  0.4964
24702SOL     OW75546   7.148   3.418  12.357 -0.3706  0.7442  0.0736
24702SOL    HW175547   7.181   3.353  12.419 -0.3691 -0.8548 -1.5188
24702SOL    HW275548   7.222   3.477  12.342  0.5217 -0.4895 -0.4791
24703SOL     OW75549   1.092   1.667  11.494  0.1101  0.2053  0.4555
24703SOL    HW175550   1.122   1.614  11.568  2.5743 -2.3523 -2.0933
24703SOL    HW275551   1.171   1.715  11.467 -1.0291  1.9517  0.0955
24704SOL     OW75552   7.428   4.517   3.124  0.5285 -0.1133  0.6039
24704SOL    HW175553   7.510   4.563   3.144  0.7131  0.2126 -0.7629
24704SOL    HW275554   7.365   4.553   3.186  0.4452  2.7190 -0.9606
24705SOL     OW75555   4.629   6.048   5.138  0.4947 -0.2636 -0.0903
24705SOL    HW175556   4.577   6.120   5.172  0.1287 -1.2452  1.5290
24705SOL    HW275557   4.718   6.082   5.133  0.3453  0.2749  0.7686
24706SOL     OW75558   4.094   7.482   6.528  0.4998 -0.0841  0.0456
24706SOL    HW175559   4.142   7.412   6.484 -0.0214  0.5003 -1.5506
24706SOL    HW275560   4.002   7.461   6.513  0.2566 -0.3921  1.7638
24707SOL     OW75561   4.050   5.552   6.453  0.3424  0.5414 -0.1475
24707SOL    HW175562   4.105   5.475   6.446  0.6088  0.7810 -0.7295
24707SOL    HW275563   4.055   5.578   6.545  1.5022  0.7857 -0.2725
24708SOL     OW75564   6.484   1.694   2.200  0.0014  0.2669  0.0310
24708SOL    HW175565   6.395   1.695   2.165 -0.8986 -2.3634  1.9418
24708SOL    HW275566   6.535   1.644   2.135  0.1900  1.8671 -1.1167
24709SOL     OW75567   0.629   5.232   8.779  1.0341  0.1686 -0.0152
24709SOL    HW175568   0.654   5.315   8.738  2.4673 -0.6443 -0.8792
24709SOL    HW275569   0.680   5.228   8.859 -0.7168  1.1098  1.2024
24710SOL     OW75570   1.550   0.921   5.055  0.7231 -0.0071 -0.4358
24710SOL    HW175571   1.464   0.898   5.088  1.0031 -1.1895 -0.4810
24710SOL    HW275572   1.554   1.017   5.063 -0.5909  0.0669 -0.4741
24711SOL     OW75573   3.480   0.863   5.137 -0.0390 -0.0879 -0.3650
24711SOL    HW175574   3.422   0.802   5.183  1.0706 -0.5911  0.4198
24711SOL    HW275575   3.447   0.950   5.161 -0.1007 -0.3604  0.5765
24712SOL     OW75576   2.987   7.636   7.572 -0.3564 -0.3419 -0.3144
24712SOL    HW175577   2.921   7.667   7.510 -0.0060 -0.1825 -0.6100
24712SOL    HW275578   3.065   7.687   7.552  0.0329 -0.9394 -0.3503
24713SOL     OW75579   6.328   3.951   6.453 -0.6321  0.7875  0.5622
24713SOL    HW175580   6.285   3.961   6.368 -0.6530  1.3502  0.6337
24713SOL    HW275581   6.422   3.954   6.433 -0.6001 -0.6549  0.3802
24714SOL     OW75582   4.772   3.298   2.918  0.3164 -0.9968  0.2414
24714SOL    HW175583   4.803   3.210   2.937 -0.9116 -0.9212  2.9578
24714SOL    HW275584   4.818   3.354   2.981 -0.4984  0.0216 -0.0463
24715SOL     OW75585   4.240   3.471   3.408  0.0231  0.0386 -0.6486
24715SOL    HW175586   4.273   3.447   3.495 -1.6350 -1.0673 -0.2907
24715SOL    HW275587   4.242   3.389   3.358 -0.5229  0.3392 -1.1747
24716SOL     OW75588   6.390   4.521   8.480  0.2119 -0.6995  0.1397
24716SOL    HW175589   6.461   4.569   8.522  0.4881 -1.2485  0.2973
24716SOL    HW275590   6.324   4.510   8.548 -0.0617 -0.1327 -0.0241
24717SOL     OW75591   5.581   7.879   7.528 -0.2391 -0.5969 -0.4336
24717SOL    HW175592   5.609   7.908   7.441  0.8008  0.1607  0.1392
24717SOL    HW275593   5.538   7.795   7.512  0.5297 -0.7943 -1.6024
24718SOL     OW75594   5.547   5.982  10.668 -0.4676  0.4909  0.4331
24718SOL    HW175595   5.502   6.011  10.589 -1.4784  1.2455  1.2556
24718SOL    HW275596   5.545   6.058  10.726  3.3704  1.1599 -0.0297
24719SOL     OW75597   6.094   7.112   3.442  0.1159 -0.3735  0.1625
24719SOL    HW175598   6.033   7.039   3.427 -1.1330  0.2612  1.8310
24719SOL    HW275599   6.141   7.121   3.359 -2.7349 -0.2991 -1.5946
24720SOL     OW75600   6.674   4.925   3.787  0.1389 -0.1770 -0.0550
24720SOL    HW175601   6.755   4.899   3.832  0.3300 -0.1560 -0.3756
24720SOL    HW275602   6.616   4.956   3.856  0.5348  0.1316  0.1460
24721SOL     OW75603   0.852   7.208   6.465 -0.5055 -0.1448  0.2459
24721SOL    HW175604   0.898   7.185   6.384 -0.9175  0.5550 -0.1963
24721SOL    HW275605   0.850   7.304   6.465 -0.3134 -0.1287  1.1989
24722SOL     OW75606   1.539   7.600  11.417 -0.8830  0.2926  0.0701
24722SOL    HW175607   1.603   7.670  11.408  0.4524 -1.0339 -1.2712
24722SOL    HW275608   1.547   7.572  11.508 -0.0854  0.6532  0.1212
24723SOL     OW75609   4.853   5.604  10.054 -0.2216 -0.2291 -0.8399
24723SOL    HW175610   4.924   5.542  10.040  0.1088  0.2248 -1.1933
24723SOL    HW275611   4.804   5.605   9.972  0.8409  1.3104 -1.5134
24724SOL     OW75612   3.997   3.206  11.775 -0.6333 -0.4185 -0.5259
24724SOL    HW175613   3.975   3.167  11.860 -1.2910 -1.1070 -1.0018
24724SOL    HW275614   3.913   3.237  11.741  0.0426  3.4245  0.7431
24725SOL     OW75615   4.660   2.558   1.362 -0.5680 -0.6924  0.3816
24725SOL    HW175616   4.625   2.621   1.300 -0.4450 -0.9516  0.0488
24725SOL    HW275617   4.730   2.513   1.315 -0.4115 -0.8261  0.7354
24726SOL     OW75618   2.776   3.312   6.621  0.7063 -0.2267 -0.2272
24726SOL    HW175619   2.858   3.360   6.629  0.6775  0.1124 -1.6331
24726SOL    HW275620   2.796   3.241   6.561 -0.1021  0.0768 -0.8787
24727SOL     OW75621   1.335   0.499   4.139  0.0923  0.4347  0.2778
24727SOL    HW175622   1.404   0.434   4.126 -1.0440 -0.7337 -0.1484
24727SOL    HW275623   1.379   0.573   4.181  1.4660 -0.5318  0.6115
24728SOL     OW75624   4.781   7.311   3.755  0.3533  0.1482 -0.0291
24728SOL    HW175625   4.817   7.333   3.841  2.0083 -1.0813 -0.3630
24728SOL    HW275626   4.707   7.253   3.775  1.3147 -0.9108  0.5731
24729SOL     OW75627   4.846   4.225   2.814 -0.7802  0.6164 -0.0329
24729SOL    HW175628   4.922   4.281   2.802  0.3020 -0.3867  1.7531
24729SOL    HW275629   4.834   4.182   2.730  0.4766  0.9505 -0.3972
24730SOL     OW75630   7.802   2.451  10.785 -0.2585  0.6260 -0.0085
24730SOL    HW175631   7.709   2.450  10.809 -0.1967  1.1083  0.2700
24730SOL    HW275632   7.845   2.493  10.859  0.1569  0.5960 -0.2302
24731SOL     OW75633   7.273   6.729  11.610  0.6067 -0.7240 -0.2678
24731SOL    HW175634   7.363   6.735  11.578  0.9016  0.0988  0.6437
24731SOL    HW275635   7.281   6.743  11.705 -0.6630  1.2765 -0.3940
24732SOL     OW75636   2.017   0.486  10.667 -0.1258 -0.1312 -0.0178
24732SOL    HW175637   2.018   0.578  10.641  1.5592 -0.2606 -0.5130
24732SOL    HW275638   2.104   0.454  10.646 -0.3179 -1.5628  1.2028
24733SOL     OW75639   3.585   4.342   4.849  0.4632  0.1954 -0.0127
24733SOL    HW175640   3.529   4.370   4.776 -1.3562 -0.5916  1.0045
24733SOL    HW275641   3.587   4.247   4.843  1.7800  0.2138 -0.0554
24734SOL     OW75642   2.114   1.375  10.948  0.3327 -0.3076  0.1085
24734SOL    HW175643   2.199   1.345  10.916  1.1080  0.5205  1.2874
24734SOL    HW275644   2.115   1.351  11.041 -0.7866 -0.3934  0.1064
24735SOL     OW75645   1.174   4.024   2.776 -0.2380 -0.2222  0.0159
24735SOL    HW175646   1.265   4.026   2.806 -0.7203 -1.3657  1.7202
24735SOL    HW275647   1.143   3.936   2.799 -2.0630  0.4657  0.3817
24736SOL     OW75648   2.570   6.173   6.747 -0.8215 -0.4620  0.0445
24736SOL    HW175649   2.618   6.109   6.695 -0.9796 -2.4321  2.1479
24736SOL    HW275650   2.478   6.158   6.725 -0.8496 -0.9141  0.4452
24737SOL     OW75651   2.377   7.124   5.338  0.0140  0.2363  0.0453
24737SOL    HW175652   2.429   7.134   5.418 -0.2653 -1.7312  0.5294
24737SOL    HW275653   2.405   7.041   5.301 -3.8263 -1.8690  1.2355
24738SOL     OW75654   1.881   5.746   7.259 -0.5189 -0.0392 -0.0176
24738SOL    HW175655   1.834   5.685   7.201 -0.4965 -0.2595  0.1948
24738SOL    HW275656   1.858   5.833   7.226 -0.9471 -0.1477 -0.0153
24739SOL     OW75657   7.080   1.378  10.709 -0.4777 -0.1934 -0.0552
24739SOL    HW175658   7.146   1.316  10.680 -1.1337 -0.8457 -0.1938
24739SOL    HW275659   7.109   1.405  10.796  0.8956  0.8945 -0.8219
24740SOL     OW75660   5.942   5.363   3.264 -0.0852  0.4800 -0.4884
24740SOL    HW175661   5.916   5.452   3.290  1.6525  1.6207 -2.3263
24740SOL    HW275662   5.862   5.311   3.274 -1.7380  2.6949 -1.3123
24741SOL     OW75663   3.277   2.324   3.542 -0.2118 -0.0794  0.6064
24741SOL    HW175664   3.192   2.295   3.508  0.4398 -0.4460 -0.7816
24741SOL    HW275665   3.263   2.334   3.636 -1.3856 -1.5686  0.6214
24742SOL     OW75666   0.237   7.098   0.382  0.3553 -0.3755 -0.2643
24742SOL    HW175667   0.159   7.043   0.386 -1.0931  1.6531  1.3665
24742SOL    HW275668   0.290   7.060   0.312 -0.8212 -3.4141  0.3398
24743SOL     OW75669   6.655   5.253   0.156  0.0950  0.4899 -0.0082
24743SOL    HW175670   6.647   5.288   0.244 -0.2810 -0.0464  0.1749
24743SOL    HW275671   6.734   5.199   0.159 -0.7061 -0.6789  0.4004
24744SOL     OW75672   6.825   4.260   6.678  0.1572  0.2209  0.2370
24744SOL    HW175673   6.818   4.169   6.650 -0.0216 -0.2170  1.6399
24744SOL    HW275674   6.919   4.278   6.678  0.1726  0.1521 -0.3822
24745SOL     OW75675   0.748   7.514   7.954 -0.2604 -0.4405 -0.4297
24745SOL    HW175676   0.673   7.574   7.957 -0.3731 -0.5654 -0.7154
24745SOL    HW275677   0.812   7.553   8.013 -0.5282 -0.2987 -0.2316
24746SOL     OW75678   1.126   0.597  11.188 -0.0489  0.0210 -0.2314
24746SOL    HW175679   1.104   0.518  11.236  0.3773 -1.3025 -2.0806
24746SOL    HW275680   1.103   0.577  11.097  0.1707  1.9925 -0.7699
24747SOL     OW75681   1.173   5.359  10.079  0.0463 -0.1714  0.0895
24747SOL    HW175682   1.218   5.277  10.103 -1.2891 -0.8649  0.3205
24747SOL    HW275683   1.084   5.332  10.057 -0.1105  1.0936 -0.9479
24748SOL     OW75684   4.845   0.964   1.455 -0.0736  0.2457  0.4060
24748SOL    HW175685   4.902   1.010   1.517  1.3925 -1.9964  0.8406
24748SOL    HW275686   4.889   0.971   1.371 -1.8558  2.9204 -0.4533
24749SOL     OW75687   2.854   5.256   7.086 -0.5831  0.2540 -0.3252
24749SOL    HW175688   2.895   5.343   7.087  1.6817 -0.7202  1.5067
24749SOL    HW275689   2.761   5.274   7.100 -0.3066  2.4036 -0.7698
24750SOL     OW75690   3.849   0.638   4.223 -0.2486  0.0990  0.0073
24750SOL    HW175691   3.771   0.606   4.268 -2.5245  1.6233 -2.5113
24750SOL    HW275692   3.861   0.577   4.150  0.6021  0.1654  0.0890
24751SOL     OW75693   4.291   1.701   3.175  0.2193  0.1023  0.3660
24751SOL    HW175694   4.314   1.632   3.112 -2.2342  0.7746 -1.4344
24751SOL    HW275695   4.231   1.658   3.236  0.3573  0.1370  0.5263
24752SOL     OW75696   6.984   1.550   0.344  0.5840 -0.6654  0.0456
24752SOL    HW175697   6.900   1.554   0.391  0.4850  0.3960 -0.2158
24752SOL    HW275698   6.966   1.492   0.270  0.3805 -1.2856  0.5562
24753SOL     OW75699   2.953   4.041  11.101 -0.5815  0.0116  0.3298
24753SOL    HW175700   2.983   4.098  11.172  2.2597 -0.1516 -0.6496
24753SOL    HW275701   2.886   3.986  11.141  0.2997  0.5248  2.6470
24754SOL     OW75702   0.967   5.741   1.431 -0.1419  0.1023  0.3740
24754SOL    HW175703   1.046   5.778   1.392  0.2340 -1.2352 -0.2040
24754SOL    HW275704   0.897   5.762   1.370  0.0465 -0.0203  0.1120
24755SOL     OW75705   0.442   3.131   5.578  0.2951 -0.2437 -0.1513
24755SOL    HW175706   0.444   3.072   5.502  0.6820 -2.3336  1.3774
24755SOL    HW275707   0.372   3.095   5.633 -0.2156  1.4478  0.3429
24756SOL     OW75708   1.917   4.601   5.798 -0.3824 -0.3378  0.3867
24756SOL    HW175709   1.838   4.649   5.776 -0.4506 -0.2108  0.9061
24756SOL    HW275710   1.962   4.589   5.714 -1.2290 -0.9197  0.0040
24757SOL     OW75711   5.997   3.699   4.474  0.1009 -0.3377 -0.0341
24757SOL    HW175712   5.917   3.660   4.509  0.1449 -0.9407 -0.5848
24757SOL    HW275713   5.969   3.783   4.439  0.1803  0.5983  2.0321
24758SOL     OW75714   7.816   2.753  10.439  0.5418  0.0335 -0.1003
24758SOL    HW175715   7.749   2.818  10.419  1.1499  0.6242 -0.2166
24758SOL    HW275716   7.775   2.696  10.504 -0.0992  0.3460 -0.2267
24759SOL     OW75717   7.599   0.557  11.413  0.0184  0.1993 -0.4054
24759SOL    HW175718   7.693   0.568  11.426 -0.2380  3.1071 -0.4406
24759SOL    HW275719   7.578   0.613  11.339 -1.8165 -0.0737 -0.1478
24760SOL     OW75720   1.620   6.147   0.897  0.2699  0.1225  0.3063
24760SOL    HW175721   1.655   6.059   0.888 -0.5067 -0.0826 -0.9996
24760SOL    HW275722   1.535   6.136   0.939 -1.3663 -0.2006 -2.7574
24761SOL     OW75723   3.703   0.575   6.044 -0.3779 -0.3253  0.1966
24761SOL    HW175724   3.722   0.666   6.067  0.3055 -0.5312  0.4469
24761SOL    HW275725   3.731   0.524   6.120 -0.8235 -0.7465  0.0882
24762SOL     OW75726   3.861   2.308   3.109  0.1998 -0.5553 -1.0828
24762SOL    HW175727   3.799   2.374   3.077 -1.8562 -1.3441  0.9688
24762SOL    HW275728   3.830   2.226   3.071  0.2133 -0.8962 -0.3762
24763SOL     OW75729   7.648   2.790  11.583 -0.4266 -0.1195  0.0170
24763SOL    HW175730   7.670   2.715  11.638  1.2008 -0.4616 -1.0278
24763SOL    HW275731   7.555   2.805  11.598 -0.6955 -2.0869  0.5676
24764SOL     OW75732   0.911   7.109   7.546  0.2209 -0.0369  0.3363
24764SOL    HW175733   0.949   7.036   7.595  0.1648  0.1687  0.6915
24764SOL    HW275734   0.985   7.146   7.497  0.8443  1.2984  2.1691
24765SOL     OW75735   4.155   6.072   8.958  0.2202 -0.2810  0.3096
24765SOL    HW175736   4.143   6.012   9.032  0.6739 -0.1144  0.5242
24765SOL    HW275737   4.102   6.034   8.888  4.4885 -4.0564 -1.3782
24766SOL     OW75738   5.265   7.300   4.253  0.1040 -0.6624  0.2171
24766SOL    HW175739   5.299   7.346   4.330  1.0613  0.3645 -0.7700
24766SOL    HW275740   5.326   7.227   4.241  1.0500  0.2234 -0.5863
24767SOL     OW75741   6.859   6.230   3.416 -0.1444  0.2694 -0.0164
24767SOL    HW175742   6.866   6.135   3.430  1.5442  0.6166  2.0448
24767SOL    HW275743   6.809   6.261   3.492  2.1546  1.3350  1.1724
24768SOL     OW75744   1.465   7.416   9.131  0.9416  0.4827  0.4485
24768SOL    HW175745   1.499   7.456   9.210 -2.4387  0.1742  2.2278
24768SOL    HW275746   1.442   7.490   9.074  1.1478  0.7811  0.7523
24769SOL     OW75747   3.129   5.544   2.359  0.3525 -0.1064 -0.3113
24769SOL    HW175748   3.208   5.586   2.325 -0.1544  0.3557 -0.9485
24769SOL    HW275749   3.075   5.616   2.392  0.9213 -0.5551  1.7539
24770SOL     OW75750   3.078   4.982   0.886 -0.2643 -0.2418 -0.4869
24770SOL    HW175751   3.162   4.948   0.917 -0.4586 -0.7048 -0.4615
24770SOL    HW275752   3.023   4.985   0.964 -0.2526  0.1399 -0.4883
24771SOL     OW75753   6.589   6.619   4.559 -0.2502 -0.2346 -0.4853
24771SOL    HW175754   6.658   6.675   4.594 -1.5968  2.2623 -1.5412
24771SOL    HW275755   6.511   6.675   4.559 -1.9856 -2.5180 -0.5366
24772SOL     OW75756   6.755   2.698   3.109  0.5329  0.0613  0.9874
24772SOL    HW175757   6.842   2.714   3.147  1.0782  1.6035 -0.7941
24772SOL    HW275758   6.724   2.784   3.083  1.0776 -0.9396 -3.8144
24773SOL     OW75759   5.313   3.166   4.406  0.0725 -0.4763 -0.4322
24773SOL    HW175760   5.260   3.100   4.451 -1.4472  0.0564 -1.3642
24773SOL    HW275761   5.392   3.119   4.379  0.0684 -1.3134  0.9415
24774SOL     OW75762   5.143   4.945  12.140  0.2051 -0.4172  0.3355
24774SOL    HW175763   5.124   5.029  12.097  0.5163 -0.7784 -0.5107
24774SOL    HW275764   5.126   4.963  12.233 -0.8652  0.2564  0.0365
24775SOL     OW75765   7.580   5.438  12.174 -0.0202 -0.1102 -0.0314
24775SOL    HW175766   7.625   5.462  12.256  0.5571  1.9241 -0.8751
24775SOL    HW275767   7.493   5.412  12.202  0.7904 -1.4936  1.4077
24776SOL     OW75768   0.818   7.116   3.519 -0.6676  0.6731 -0.1860
24776SOL    HW175769   0.746   7.066   3.556  0.1964  1.3366  2.7090
24776SOL    HW275770   0.836   7.075   3.434 -3.3161 -0.5337 -0.2455
24777SOL     OW75771   3.606   2.505  11.134 -0.3863  0.3702 -0.2406
24777SOL    HW175772   3.555   2.426  11.153 -1.1033  1.0773  0.8724
24777SOL    HW275773   3.547   2.558  11.080 -1.3706  1.7241  2.0542
24778SOL     OW75774   0.615   0.908   8.273  0.5800  0.2606  0.6089
24778SOL    HW175775   0.685   0.869   8.221  0.5252 -0.4869  1.0767
24778SOL    HW275776   0.598   0.992   8.231  1.1062  0.0383 -0.0764
24779SOL     OW75777   5.668   1.174  12.305  0.2588 -0.3972  0.0497
24779SOL    HW175778   5.644   1.089  12.341  4.0258 -1.2314  1.0019
24779SOL    HW275779   5.732   1.154  12.237 -0.3413  1.6491 -1.2168
24780SOL     OW75780   5.607   3.270  10.062 -0.3047  0.2118 -0.1673
24780SOL    HW175781   5.670   3.199  10.051 -2.2209 -1.5706 -0.1716
24780SOL    HW275782   5.599   3.308   9.974  0.5661  0.3283 -0.2110
24781SOL     OW75783   1.742   0.215  11.152  0.4190  0.1375  0.1553
24781SOL    HW175784   1.744   0.224  11.057  0.6152  1.0824  0.2404
24781SOL    HW275785   1.831   0.233  11.181  0.3057  0.1177  0.5339
24782SOL     OW75786   4.552   4.329   4.577  0.4410  0.1740 -0.1389
24782SOL    HW175787   4.614   4.259   4.597  0.7303  0.6074  0.5000
24782SOL    HW275788   4.493   4.330   4.652 -0.0390  0.1004 -0.5124
24783SOL     OW75789   2.591   5.194  10.081 -0.2689  0.6178  0.3089
24783SOL    HW175790   2.680   5.220  10.059 -0.1093  0.0988  0.3285
24783SOL    HW275791   2.540   5.275  10.078  0.2470  0.9512  0.5100
24784SOL     OW75792   1.678   4.140  10.775  0.2322  0.3565  0.0429
24784SOL    HW175793   1.583   4.131  10.770  0.3322 -0.5326 -0.5740
24784SOL    HW275794   1.704   4.166  10.687  0.6789 -0.7778 -0.1805
24785SOL     OW75795   5.475   2.526   2.492  0.5489  0.4546  0.2109
24785SOL    HW175796   5.471   2.468   2.568  0.4558 -0.5221 -0.5182
24785SOL    HW275797   5.568   2.529   2.468  0.8846  2.3610  1.5290
24786SOL     OW75798   0.001   1.652   3.184 -0.2210  0.0738 -0.1703
24786SOL    HW175799  -0.020   1.559   3.175  0.0322  0.1011 -1.2079
24786SOL    HW275800  -0.074   1.690   3.230  0.1659 -0.8264  1.2628
24787SOL     OW75801   7.044   3.296   6.173 -0.1854  0.2834 -0.4452
24787SOL    HW175802   7.021   3.285   6.265  0.4692  1.8360 -0.0733
24787SOL    HW275803   6.967   3.262   6.126 -0.6311 -0.3026  0.6558
24788SOL     OW75804   0.873   7.072   0.879  0.1602  0.2926 -0.7635
24788SOL    HW175805   0.805   7.126   0.838 -0.2531  0.6632  0.3755
24788SOL    HW275806   0.896   7.119   0.960 -0.7238 -1.5589  0.6259
24789SOL     OW75807   7.140   6.648   0.668 -0.6164  0.5002 -0.1693
24789SOL    HW175808   7.197   6.632   0.593  0.6119  1.8382  0.4477
24789SOL    HW275809   7.098   6.563   0.684  1.6718 -0.7319 -0.2496
24790SOL     OW75810   2.831   2.198  10.286  0.2864 -0.6899 -0.4681
24790SOL    HW175811   2.800   2.137  10.218 -0.4587 -0.2691 -0.5179
24790SOL    HW275812   2.865   2.273  10.237 -1.0048 -0.0240 -0.3850
24791SOL     OW75813   0.826   3.441  11.224 -0.1033 -0.2229  0.0788
24791SOL    HW175814   0.892   3.488  11.275 -0.0829  0.1727 -0.3023
24791SOL    HW275815   0.837   3.474  11.134 -0.7274 -0.2482 -0.0161
24792SOL     OW75816   0.498   2.666   9.670  0.6492  0.0058  0.3442
24792SOL    HW175817   0.509   2.634   9.759 -1.1035 -1.5109  0.0609
24792SOL    HW275818   0.413   2.710   9.670  0.3527 -0.5394 -0.7122
24793SOL     OW75819   3.195   5.850  12.074 -0.1549  0.4112  0.5905
24793SOL    HW175820   3.230   5.839  11.986 -0.9392  0.9240  0.2043
24793SOL    HW275821   3.243   5.786  12.127  1.2485  0.9916  0.0624
24794SOL     OW75822   7.917   1.547   8.565 -0.3778 -0.2599  0.6336
24794SOL    HW175823   7.960   1.461   8.563  0.1986  0.0241 -0.0165
24794SOL    HW275824   7.838   1.534   8.617 -2.2124 -2.1061 -2.2995
24795SOL     OW75825   4.153   4.019  12.444  0.2866  0.0888 -0.3487
24795SOL    HW175826   4.157   4.114  12.436 -0.1201  0.0016 -1.8132
24795SOL    HW275827   4.228   3.997  12.500  1.1482  1.1717 -1.0259
24796SOL     OW75828   4.358   7.910  10.243  0.7492 -0.6496 -0.3036
24796SOL    HW175829   4.305   7.949  10.173  0.6714  0.2067  0.2179
24796SOL    HW275830   4.424   7.977  10.263 -0.1958 -0.2080  1.5116
24797SOL     OW75831   6.038   6.471  11.452 -0.1146  0.7147 -0.1197
24797SOL    HW175832   6.095   6.410  11.499 -1.0235  0.3359  0.4981
24797SOL    HW275833   6.088   6.553  11.451 -0.3546  0.9781  2.2252
24798SOL     OW75834   6.780   7.006   9.630 -0.8485 -0.2041 -0.1990
24798SOL    HW175835   6.690   7.001   9.662 -0.7619  0.1612  0.1021
24798SOL    HW275836   6.819   6.923   9.656 -1.3568 -0.7740 -1.1480
24799SOL     OW75837   5.328   6.964   0.066 -0.1315  0.2586 -0.0267
24799SOL    HW175838   5.301   7.053   0.041  1.1518  0.4981 -0.6613
24799SOL    HW275839   5.280   6.906   0.007  0.6030  0.6617 -1.0505
24800SOL     OW75840   4.449   5.968  12.360  0.0859  0.4168 -0.2277
24800SOL    HW175841   4.442   6.059  12.333 -1.5233  0.5298  0.4720
24800SOL    HW275842   4.543   5.949  12.357  0.5244  2.3086  0.3388
24801SOL     OW75843   4.268   6.405   8.049  0.0463 -0.0445 -0.5751
24801SOL    HW175844   4.314   6.420   8.132  0.5846  0.6525 -0.9883
24801SOL    HW275845   4.220   6.486   8.033 -0.7844 -0.5124 -0.5005
24802SOL     OW75846   2.995   2.791   0.016 -0.2068 -0.1223 -0.6539
24802SOL    HW175847   3.066   2.852   0.036  0.2386 -0.7211 -0.3511
24802SOL    HW275848   2.979   2.803  -0.078 -1.0323  1.3862 -0.3406
24803SOL     OW75849   7.463   6.350   2.897 -0.4307 -0.8395 -0.0003
24803SOL    HW175850   7.437   6.266   2.859 -1.8187  0.3560 -1.8262
24803SOL    HW275851   7.553   6.362   2.868 -1.0445 -0.5599 -1.9134
24804SOL     OW75852   1.639   6.906   4.667  0.0686  0.1277  0.0291
24804SOL    HW175853   1.645   6.973   4.735  0.3680  0.2970 -0.1627
24804SOL    HW275854   1.631   6.824   4.716 -0.4178  0.3120  0.2610
24805SOL     OW75855   1.457   1.429   1.541 -0.0554  0.1340  0.7498
24805SOL    HW175856   1.378   1.391   1.502 -0.5739  0.4733  1.4563
24805SOL    HW275857   1.435   1.521   1.555  0.6000  0.3200  0.6146
24806SOL     OW75858   0.780   1.734   3.809 -0.1190 -0.1055 -0.2690
24806SOL    HW175859   0.836   1.782   3.748  2.3443 -0.3381  1.6599
24806SOL    HW275860   0.771   1.647   3.771  1.0337 -0.1219 -0.5096
24807SOL     OW75861   2.961   0.438   8.853 -0.4471  0.2715  0.3725
24807SOL    HW175862   2.918   0.421   8.937 -1.2096 -1.3329 -0.2906
24807SOL    HW275863   3.008   0.357   8.834  0.7272  1.0683 -0.1834
24808SOL     OW75864   1.489   4.670   9.988 -0.5700  0.2898  0.3924
24808SOL    HW175865   1.401   4.709   9.991 -1.5684 -1.7623 -0.1496
24808SOL    HW275866   1.486   4.600  10.053  0.6544  0.1413  0.2997
24809SOL     OW75867   7.762   2.598   6.666  0.1878 -0.0240 -0.0384
24809SOL    HW175868   7.806   2.669   6.714 -0.5092  1.0976 -0.9917
24809SOL    HW275869   7.805   2.597   6.580 -0.1874 -0.3804 -0.2239
24810SOL     OW75870   4.424   7.465   0.594  0.2466  0.9276 -0.3035
24810SOL    HW175871   4.463   7.378   0.586 -1.5174 -0.1332  1.6915
24810SOL    HW275872   4.388   7.483   0.507  0.6201 -0.3467 -0.7461
24811SOL     OW75873   4.660   5.051   7.914 -0.0754 -0.2915 -0.0025
24811SOL    HW175874   4.626   5.012   7.995  0.3376 -1.3836 -0.3416
24811SOL    HW275875   4.583   5.062   7.859 -0.6006  1.8589  1.0721
24812SOL     OW75876   6.256   5.255   4.947 -0.0807  0.5653  0.4118
24812SOL    HW175877   6.176   5.212   4.920 -0.1627 -0.1243  1.6472
24812SOL    HW275878   6.227   5.325   5.007  0.2822 -1.1670  2.7566
24813SOL     OW75879   1.234   5.418   2.581 -0.1857  0.3693 -0.4958
24813SOL    HW175880   1.256   5.506   2.611 -0.8977  0.7442 -1.0679
24813SOL    HW275881   1.139   5.414   2.584 -0.1615 -0.4127 -0.4102
24814SOL     OW75882   2.535   5.903   7.913 -0.6188  0.5982 -0.3201
24814SOL    HW175883   2.452   5.882   7.955  0.2489 -1.4309  0.5210
24814SOL    HW275884   2.511   5.931   7.825 -2.2159  0.8182  0.1494
24815SOL     OW75885   1.675   4.974  10.912 -0.3604  0.2307  0.0888
24815SOL    HW175886   1.661   4.931  10.828  0.7995  0.5325 -0.2677
24815SOL    HW275887   1.608   4.936  10.969 -0.8105 -0.3776 -0.8154
24816SOL     OW75888   1.210   5.130   2.186  0.5811 -0.5526 -0.1933
24816SOL    HW175889   1.115   5.144   2.188  0.5623 -0.7266  0.1094
24816SOL    HW275890   1.222   5.040   2.215  0.7142 -1.1916 -2.0918
24817SOL     OW75891   7.263   0.515   0.146  0.6204  0.3381  0.4504
24817SOL    HW175892   7.331   0.574   0.180  0.4697  0.9902 -0.3332
24817SOL    HW275893   7.283   0.430   0.184  3.4196 -0.1033 -1.7151
24818SOL     OW75894   5.106   5.488   2.252  0.2780 -0.0607  0.0916
24818SOL    HW175895   5.158   5.472   2.331  1.9673 -2.6511 -1.4269
24818SOL    HW275896   5.045   5.414   2.248 -2.1312  1.7632  0.6208
24819SOL     OW75897   4.188   7.233   6.463 -0.6525 -0.5346  0.2233
24819SOL    HW175898   4.264   7.244   6.406 -0.9649 -1.1832 -0.3279
24819SOL    HW275899   4.220   7.176   6.534 -0.6673 -0.9469 -0.0983
24820SOL     OW75900   1.778   1.038   3.564 -0.1540  0.0403  0.6373
24820SOL    HW175901   1.806   1.096   3.634 -4.2439  0.8385  1.8140
24820SOL    HW275902   1.788   0.950   3.601  0.1737  0.3143  1.2134
24821SOL     OW75903   2.462   0.837  11.115  0.4199  0.1003  0.0646
24821SOL    HW175904   2.409   0.916  11.126  0.0057  0.1764 -2.0411
24821SOL    HW275905   2.552   0.869  11.106  0.7347  0.0483  2.5717
24822SOL     OW75906   4.332   2.967   6.621  0.6946  0.1767  0.3434
24822SOL    HW175907   4.326   2.937   6.530  0.8288 -2.0482  1.0192
24822SOL    HW275908   4.250   2.939   6.661  0.8260  0.7554  1.0429
24823SOL     OW75909   2.395   4.768   8.373 -0.2026 -0.7422 -0.0142
24823SOL    HW175910   2.489   4.774   8.355 -0.4558  0.9475 -1.0206
24823SOL    HW275911   2.370   4.682   8.340  0.4423  0.0292 -2.7802
24824SOL     OW75912   2.801   1.476   6.315  0.1335  0.0827 -0.6618
24824SOL    HW175913   2.866   1.500   6.381 -0.7215 -0.3356  0.3525
24824SOL    HW275914   2.767   1.560   6.283 -0.2535  0.2823  0.2529
24825SOL     OW75915   0.733   0.868   0.736 -0.6974  0.1305  0.1712
24825SOL    HW175916   0.725   0.955   0.697  2.2906  0.4778  0.1352
24825SOL    HW275917   0.755   0.811   0.663  2.7425  0.4020  0.8240
24826SOL     OW75918   3.675   6.915   4.378 -0.0674  0.0080 -0.2917
24826SOL    HW175919   3.702   6.826   4.401 -0.1134  0.2711  0.8369
24826SOL    HW275920   3.580   6.914   4.386  0.0214  0.5065  1.1082
24827SOL     OW75921   1.696   6.224   0.306  0.5284  0.2820  0.0882
24827SOL    HW175922   1.697   6.164   0.231 -1.2244 -0.1135  0.3553
24827SOL    HW275923   1.636   6.294   0.280 -1.0743 -0.4963  1.5833
24828SOL     OW75924   5.151   5.417  12.145  0.3965  0.0087 -0.0828
24828SOL    HW175925   5.171   5.411  12.052  1.5655 -1.9182  0.2497
24828SOL    HW275926   5.230   5.452  12.185  0.1076  0.2789  0.2624
24829SOL     OW75927   1.287   4.054   9.230 -0.5210 -0.1343 -0.0205
24829SOL    HW175928   1.228   3.997   9.181 -0.6229 -0.1620  0.1363
24829SOL    HW275929   1.375   4.030   9.199 -0.6485  0.6778 -1.0984
24830SOL     OW75930   3.890   6.901   8.875  0.2610  0.0018 -0.0323
24830SOL    HW175931   3.969   6.846   8.869  1.3056  1.3391  0.9979
24830SOL    HW275932   3.904   6.955   8.952 -1.2245  0.9931 -0.4212
24831SOL     OW75933   6.765   7.721   1.681  0.4498  0.1977 -0.5086
24831SOL    HW175934   6.690   7.672   1.646  1.0429 -1.4502  0.4186
24831SOL    HW275935   6.758   7.807   1.640 -1.9740  0.1235 -0.4082
24832SOL     OW75936   1.128   2.342  12.247 -0.3476 -0.1101  0.3869
24832SOL    HW175937   1.152   2.266  12.300 -2.5113  0.9978  3.2330
24832SOL    HW275938   1.172   2.416  12.288 -2.5425  0.8730  1.0999
24833SOL     OW75939   3.308   5.550  11.871  1.1582  0.1241  0.1124
24833SOL    HW175940   3.213   5.546  11.882  0.9631  0.9608 -1.0006
24833SOL    HW275941   3.343   5.489  11.935 -0.1409 -0.2596  0.4798
24834SOL     OW75942   2.909   2.125   9.417  0.0127  0.8009 -0.4544
24834SOL    HW175943   2.979   2.117   9.353  0.2772  0.3556 -0.1132
24834SOL    HW275944   2.940   2.190   9.479  0.7779 -0.4539  0.5209
24835SOL     OW75945   6.847   1.692   1.806  0.5868  0.4352  0.5391
24835SOL    HW175946   6.892   1.608   1.804  0.8701  0.5002  2.2180
24835SOL    HW275947   6.757   1.673   1.779  0.6218 -0.4444  1.0243
24836SOL     OW75948   3.518   0.440  10.484  0.1620 -0.0586 -0.8495
24836SOL    HW175949   3.576   0.509  10.451 -0.0017  0.6104  0.2136
24836SOL    HW275950   3.551   0.421  10.571  0.9973 -2.2642 -1.5791
24837SOL     OW75951   1.688   6.871   2.528 -0.1893  0.5207 -0.1169
24837SOL    HW175952   1.739   6.813   2.584  0.5466 -0.0207 -1.2953
24837SOL    HW275953   1.603   6.828   2.519  0.7128 -1.0244 -1.8828
24838SOL     OW75954   3.973   5.444  11.967  0.0404  0.3291  0.4858
24838SOL    HW175955   3.958   5.387  12.042 -1.9503 -0.0750 -0.1574
24838SOL    HW275956   4.016   5.387  11.902  0.0701  0.1634  0.6508
24839SOL     OW75957   1.794   1.953   0.566  0.0759 -0.3927  0.9663
24839SOL    HW175958   1.885   1.927   0.583  0.9467  0.3186 -2.0277
24839SOL    HW275959   1.801   2.027   0.505 -2.5145 -0.0802  0.9383
24840SOL     OW75960   6.547   6.848  12.126  0.1365  0.0110  0.4040
24840SOL    HW175961   6.474   6.909  12.132  0.1291  0.0943 -0.3647
24840SOL    HW275962   6.517   6.780  12.064  1.0696  0.6098 -0.7585
24841SOL     OW75963   6.788   1.348   6.864 -0.0804  0.4426  0.2285
24841SOL    HW175964   6.725   1.327   6.795  0.9420  0.3701 -0.7068
24841SOL    HW275965   6.844   1.270   6.869  0.0963  0.6089  0.8624
24842SOL     OW75966   3.953   4.548   2.889  0.5475 -0.3291 -0.2691
24842SOL    HW175967   3.871   4.499   2.893 -0.5713  1.3245 -1.3216
24842SOL    HW275968   3.976   4.547   2.796  0.9956  0.3512 -0.1714
24843SOL     OW75969   0.299   1.670   4.019  0.3108 -0.2199 -0.0641
24843SOL    HW175970   0.302   1.732   4.092 -1.2557 -1.3903  1.0867
24843SOL    HW275971   0.209   1.638   4.019  0.8985 -2.0103 -1.0050
24844SOL     OW75972   1.149   0.947   0.290 -0.2771 -0.2652  0.2488
24844SOL    HW175973   1.054   0.934   0.284 -0.3198 -2.6406  3.3011
24844SOL    HW275974   1.160   1.015   0.357  0.1628 -0.2155  0.1319
24845SOL     OW75975   5.174   5.151   2.310  0.9322 -0.0972  0.2932
24845SOL    HW175976   5.087   5.176   2.277  0.5138  0.2993  1.6607
24845SOL    HW275977   5.232   5.163   2.234 -0.0673  0.3891 -0.4206
24846SOL     OW75978   3.143   0.182   4.029 -0.1547 -0.1918  0.0661
24846SOL    HW175979   3.176   0.225   4.108  0.4670  2.3396 -1.4679
24846SOL    HW275980   3.048   0.183   4.040 -0.0638 -0.2776  0.9670
24847SOL     OW75981   1.184   1.297  10.400 -0.4274 -0.2902  0.3345
24847SOL    HW175982   1.182   1.357  10.475 -0.0204  0.1109  0.0297
24847SOL    HW275983   1.093   1.290  10.373 -0.4619  0.3357  0.2647
24848SOL     OW75984   3.039   7.117  10.706 -0.9065 -0.1502 -0.3538
24848SOL    HW175985   2.948   7.145  10.698 -1.1941 -0.4957  1.2210
24848SOL    HW275986   3.081   7.186  10.758 -0.3721 -0.1839 -0.7374
24849SOL     OW75987   0.008   2.403  11.546 -0.7938 -0.0048 -0.7361
24849SOL    HW175988   0.083   2.424  11.491 -0.6428 -0.5055 -0.7305
24849SOL    HW275989  -0.052   2.354  11.489 -1.2623  0.6639 -0.8263
24850SOL     OW75990   0.938   4.355   9.377 -0.1471 -0.1732 -0.0231
24850SOL    HW175991   1.026   4.317   9.387  0.4874  1.3364  0.4770
24850SOL    HW275992   0.932   4.419   9.447 -0.3534  2.0938 -2.0005
24851SOL     OW75993   0.976   0.157  12.021 -0.1416 -0.6823 -0.0882
24851SOL    HW175994   0.915   0.100  12.067  0.6321 -0.4654  1.2503
24851SOL    HW275995   0.959   0.141  11.928 -1.8683 -0.9975  0.2574
24852SOL     OW75996   6.235   6.248   6.374  0.1763 -0.0672 -0.1066
24852SOL    HW175997   6.308   6.266   6.433  1.6190 -2.1098 -1.1383
24852SOL    HW275998   6.172   6.199   6.427  0.9048 -0.8093  0.1006
24853SOL     OW75999   7.665   7.181   3.384  0.0308  0.4402 -0.2733
24853SOL    HW176000   7.713   7.198   3.465  1.6464  1.1597 -1.3231
24853SOL    HW276001   7.728   7.136   3.327 -0.8397  0.5516 -1.3752
24854SOL     OW76002   1.432   7.877   0.243 -0.3710 -0.2585 -0.0257
24854SOL    HW176003   1.519   7.907   0.270  0.2394 -0.4031 -1.6979
24854SOL    HW276004   1.386   7.860   0.325  1.7713 -1.8941  0.9358
24855SOL     OW76005   1.448   3.106  10.750  0.1950  0.4099  0.2598
24855SOL    HW176006   1.508   3.066  10.814  0.3970 -0.3963 -0.4089
24855SOL    HW276007   1.370   3.128  10.801  0.7820  0.8144  1.0045
24856SOL     OW76008   4.689   1.815  11.870 -0.5300  0.3192 -0.3154
24856SOL    HW176009   4.774   1.790  11.834 -0.6137 -1.3064  0.5135
24856SOL    HW276010   4.675   1.754  11.943 -2.3337  0.6404 -0.3450
24857SOL     OW76011   6.893   2.731   5.970  0.3670 -0.3147  0.4251
24857SOL    HW176012   6.876   2.647   6.014  2.4432 -0.4812  1.0255
24857SOL    HW276013   6.905   2.793   6.042  0.8697  0.0523  0.0327
24858SOL     OW76014   3.906   5.343   7.523  0.2148  0.0129 -0.2299
24858SOL    HW176015   3.883   5.404   7.592 -3.4320  0.5243 -1.6272
24858SOL    HW276016   3.954   5.395   7.459  1.1352  0.2306  0.6273
24859SOL     OW76017   1.321   1.709   8.851  0.1778  0.4656 -0.7372
24859SOL    HW176018   1.379   1.693   8.777  1.0053 -0.4268  0.0720
24859SOL    HW276019   1.235   1.682   8.820  0.5582 -0.1380 -1.2968
24860SOL     OW76020   0.239   4.443   1.304 -0.3055 -0.3576 -0.2426
24860SOL    HW176021   0.297   4.439   1.379 -0.9632 -0.1430  0.2873
24860SOL    HW276022   0.293   4.417   1.230  0.2929 -0.7783  0.3362
24861SOL     OW76023   3.516   4.957   3.605  0.0870  0.1390  0.2521
24861SOL    HW176024   3.590   4.953   3.544 -0.0514 -1.5100  0.1426
24861SOL    HW276025   3.545   4.908   3.681 -0.7179 -0.1390  0.3930
24862SOL     OW76026   6.198   6.234   9.008  0.2336 -0.9442 -0.0881
24862SOL    HW176027   6.183   6.311   9.062 -0.2358  0.8429 -2.5954
24862SOL    HW276028   6.167   6.161   9.061 -3.1208  0.9920  0.8697
24863SOL     OW76029   0.760   0.058   9.561 -0.4426  0.0706 -0.0260
24863SOL    HW176030   0.764   0.129   9.625  1.0526 -0.1487  0.1708
24863SOL    HW276031   0.825   0.083   9.494 -0.6888 -0.5781 -0.5188
24864SOL     OW76032   6.622   1.853  12.195 -0.0588 -0.3505  0.6351
24864SOL    HW176033   6.561   1.855  12.269  0.2154  0.8760  0.8415
24864SOL    HW276034   6.698   1.804  12.228 -1.1512 -2.4866  0.1635
24865SOL     OW76035   5.880   2.526   4.294  0.1226 -0.4007 -0.1042
24865SOL    HW176036   5.962   2.562   4.328 -0.4339  0.2233  0.6383
24865SOL    HW276037   5.876   2.438   4.330 -0.2014  0.0674  1.0674
24866SOL     OW76038   6.056   5.397   9.153  0.3676  0.0992 -0.0871
24866SOL    HW176039   6.064   5.307   9.120 -0.2073  0.6770 -1.9362
24866SOL    HW276040   6.106   5.450   9.090 -0.5336  1.2506  0.1315
24867SOL     OW76041   0.159   3.161  10.623  0.1464 -0.5163  0.6113
24867SOL    HW176042   0.203   3.206  10.551 -2.2959  1.0482 -0.0574
24867SOL    HW276043   0.080   3.124  10.583 -2.4142  2.1898  2.7009
24868SOL     OW76044   0.887   4.739   3.389  0.2171  0.1128  0.1270
24868SOL    HW176045   0.965   4.774   3.346 -0.7523  1.7874 -0.3447
24868SOL    HW276046   0.817   4.750   3.325 -0.8608  0.7885  1.3724
24869SOL     OW76047   5.525   3.623   5.685 -0.5305  0.1835 -0.0447
24869SOL    HW176048   5.455   3.596   5.626 -2.5624  0.7218  1.9679
24869SOL    HW276049   5.507   3.716   5.701 -0.7327 -0.1918  2.2104
24870SOL     OW76050   6.918   7.196   9.896 -0.3474 -0.1342 -0.2421
24870SOL    HW176051   6.952   7.190   9.985  2.5668  0.5752 -1.1804
24870SOL    HW276052   6.854   7.125   9.890 -0.1789 -0.5860  2.2076
24871SOL     OW76053   6.795   4.839  11.782 -0.0633  0.1435  0.0401
24871SOL    HW176054   6.888   4.825  11.766  0.1726  1.7391 -0.0951
24871SOL    HW276055   6.787   4.933  11.798 -1.3982 -0.2286  1.8511
24872SOL     OW76056   1.704   0.889   6.167  0.3772 -0.2917  0.6106
24872SOL    HW176057   1.648   0.838   6.108  0.4910  0.7460 -0.4381
24872SOL    HW276058   1.646   0.919   6.236 -0.7747  1.8746 -1.1368
24873SOL     OW76059   3.592   2.690   1.596 -0.0062 -0.0993  0.1157
24873SOL    HW176060   3.635   2.611   1.562 -1.4003 -0.8970  0.1278
24873SOL    HW276061   3.529   2.658   1.660 -0.4420  1.0487  0.2879
24874SOL     OW76062   0.255   7.457   7.975 -0.0929  0.2115  0.0979
24874SOL    HW176063   0.168   7.417   7.983  0.2967 -0.6812 -0.0463
24874SOL    HW276064   0.278   7.483   8.064 -0.6871  0.8393  0.0744
24875SOL     OW76065   0.178   2.840   9.065 -0.2734  0.3848  0.4222
24875SOL    HW176066   0.101   2.807   9.112 -1.6255  1.9120 -0.6283
24875SOL    HW276067   0.196   2.772   9.000 -1.0734  0.2411  0.3364
24876SOL     OW76068   2.068   5.389   7.960  0.6851  0.1505  0.4187
24876SOL    HW176069   2.051   5.320   8.023  0.2466  0.2773  0.4442
24876SOL    HW276070   2.114   5.457   8.010  2.5046 -0.7525  0.0469
24877SOL     OW76071   5.429   0.279   5.767  0.4845 -0.3869  0.0868
24877SOL    HW176072   5.346   0.234   5.784  0.4245 -0.3510 -0.1123
24877SOL    HW276073   5.466   0.233   5.691  0.7761 -0.5798  0.3436
24878SOL     OW76074   7.633   5.681   5.536 -0.4149 -0.1490  0.3376
24878SOL    HW176075   7.595   5.763   5.505 -0.7911 -0.1431  0.8005
24878SOL    HW276076   7.632   5.623   5.460  1.2424  0.7334 -0.4277
24879SOL     OW76077   5.963   0.888   3.864  0.1994 -0.0226 -0.2551
24879SOL    HW176078   5.914   0.968   3.844  2.0878  1.0346 -0.9401
24879SOL    HW276079   5.912   0.818   3.824 -1.0830  0.9288 -0.3446
24880SOL     OW76080   5.266   1.889  11.163 -0.3397 -0.5515 -0.2479
24880SOL    HW176081   5.177   1.856  11.149 -0.5952  0.2202 -0.4676
24880SOL    HW276082   5.322   1.821  11.126 -0.7965 -1.3600  0.4762
24881SOL     OW76083   2.508   6.881   3.066 -0.1331  0.0440 -0.2654
24881SOL    HW176084   2.435   6.830   3.032  0.8237 -0.3300 -1.8829
24881SOL    HW276085   2.555   6.911   2.988  1.5722  0.0802  0.7231
24882SOL     OW76086   3.989   1.513   4.432  0.0161 -0.4059 -0.2923
24882SOL    HW176087   4.042   1.433   4.439  2.6588  1.3106  1.2270
24882SOL    HW276088   3.959   1.530   4.521  0.0325  0.6194 -0.4720
24883SOL     OW76089   5.392   7.344   1.493  0.2781  0.0311 -0.3818
24883SOL    HW176090   5.409   7.381   1.406 -0.3837  0.5739 -0.2814
24883SOL    HW276091   5.379   7.419   1.550  1.7213 -0.2943  0.4201
24884SOL     OW76092   1.352   2.365   1.210  0.4221  0.0088  0.6359
24884SOL    HW176093   1.310   2.286   1.245 -0.0236  0.4490  1.1216
24884SOL    HW276094   1.404   2.334   1.136  1.8427 -1.0399  2.0176
24885SOL     OW76095   5.250   7.842   9.827  0.3793 -0.0278  0.1311
24885SOL    HW176096   5.245   7.747   9.817 -0.2025 -0.0343  0.4224
24885SOL    HW276097   5.285   7.873   9.743 -0.9461 -0.3762 -0.5890
24886SOL     OW76098   4.932   5.008   5.135  0.2545 -0.2818  0.5441
24886SOL    HW176099   4.897   4.963   5.058  0.1524  0.6196  0.0502
24886SOL    HW276100   4.854   5.033   5.185  0.3011 -0.4380  0.6953
24887SOL     OW76101   4.275   1.134   3.348  0.5274  0.1965 -0.7351
24887SOL    HW176102   4.360   1.145   3.306  1.2733 -0.8130  0.4583
24887SOL    HW276103   4.277   1.046   3.385 -1.1792  0.0167 -0.9865
24888SOL     OW76104   4.703   7.379   7.778  0.0424 -0.5484  0.0677
24888SOL    HW176105   4.653   7.307   7.818  0.6568 -0.7077  0.5735
24888SOL    HW276106   4.689   7.453   7.837 -1.2748  0.0070 -0.8984
24889SOL     OW76107   4.241   4.547  10.858 -0.3468 -0.7767  0.0961
24889SOL    HW176108   4.292   4.500  10.792 -0.3973 -0.3989 -0.2135
24889SOL    HW276109   4.271   4.638  10.852  2.1710 -1.2767  2.9542
24890SOL     OW76110   6.670   3.032   4.771 -0.1061  0.3371  0.0038
24890SOL    HW176111   6.657   2.950   4.724 -0.6215  0.8057 -0.6779
24890SOL    HW276112   6.587   3.046   4.818 -0.0501  0.5088  0.0526
24891SOL     OW76113   6.148   5.515   7.894 -0.3848  0.4334 -0.0002
24891SOL    HW176114   6.137   5.428   7.932 -1.2613  1.0189  1.1513
24891SOL    HW276115   6.068   5.529   7.843 -1.5847  1.6122  2.0603
24892SOL     OW76116   4.453   1.566   3.476 -0.1795 -0.6806 -0.0400
24892SOL    HW176117   4.462   1.606   3.390 -0.9724  1.7003  0.9160
24892SOL    HW276118   4.368   1.522   3.474 -0.4546 -0.1397 -0.2898
24893SOL     OW76119   6.072   5.941   5.269  0.3120 -0.1724  0.2134
24893SOL    HW176120   6.080   6.029   5.306 -3.1622  0.9672 -1.3007
24893SOL    HW276121   5.980   5.918   5.283  0.4210 -2.2998 -2.0005
24894SOL     OW76122   3.809   0.399   6.262 -0.2367 -0.0054 -0.5295
24894SOL    HW176123   3.893   0.400   6.307 -0.6053  1.2148  0.1648
24894SOL    HW276124   3.744   0.387   6.331 -0.9983  4.1712 -0.2329
24895SOL     OW76125   1.572   2.516   4.897  0.1853  0.2974 -0.2716
24895SOL    HW176126   1.574   2.595   4.843 -0.3536  1.3386  1.1868
24895SOL    HW276127   1.664   2.496   4.915  0.4022 -0.3336 -1.9028
24896SOL     OW76128   3.600   7.220   9.674 -0.0836  0.3353 -0.6726
24896SOL    HW176129   3.578   7.313   9.684 -0.4587  0.0402  1.8877
24896SOL    HW276130   3.684   7.211   9.719  1.2971 -0.1523 -3.1369
24897SOL     OW76131   6.229   1.508   8.788 -0.4380 -0.3826  0.1960
24897SOL    HW176132   6.210   1.416   8.768  0.9371 -0.6509  0.0189
24897SOL    HW276133   6.268   1.505   8.876 -0.3059  0.0191  0.1511
24898SOL     OW76134   2.339   6.672   6.774 -0.4294  0.3260 -0.3879
24898SOL    HW176135   2.354   6.579   6.758  1.8597  0.7753 -1.3055
24898SOL    HW276136   2.303   6.705   6.692 -0.8114  0.3459 -0.2154
24899SOL     OW76137   1.103   0.479   7.031 -0.0357  0.0191 -0.2699
24899SOL    HW176138   1.169   0.457   7.097 -0.3739 -1.9981 -0.5212
24899SOL    HW276139   1.042   0.538   7.075 -0.3381 -1.4023  1.3002
24900SOL     OW76140   6.913   1.029   6.478 -0.7985  0.1308 -0.2919
24900SOL    HW176141   6.882   1.005   6.391 -0.5711 -0.1091 -0.3053
24900SOL    HW276142   6.833   1.033   6.531 -1.0893  1.4547 -0.7779
24901SOL     OW76143   1.851   2.633   2.820 -0.3269 -0.3080  0.4501
24901SOL    HW176144   1.775   2.691   2.820 -0.2774 -0.2275  1.5244
24901SOL    HW276145   1.835   2.573   2.747 -0.4240  0.9705 -0.6157
24902SOL     OW76146   5.626   3.987   5.385 -0.5025  0.4245 -0.1944
24902SOL    HW176147   5.698   3.931   5.415 -0.2516  0.7720 -0.1305
24902SOL    HW276148   5.573   3.931   5.330 -0.9253 -0.2109  0.8302
24903SOL     OW76149   0.715   3.435   0.923 -0.2742  0.0691  0.4172
24903SOL    HW176150   0.715   3.340   0.917  0.3475 -0.1796  3.3068
24903SOL    HW276151   0.777   3.463   0.855 -0.1050 -1.5848 -0.1537
24904SOL     OW76152   0.135   1.811   9.766 -0.8372  0.1195 -0.0498
24904SOL    HW176153   0.173   1.895   9.793  0.6575  0.2995 -2.4479
24904SOL    HW276154   0.184   1.746   9.817 -0.3290  0.5863  0.0761
24905SOL     OW76155   3.846   1.926   4.531 -0.2900 -0.4493 -0.0429
24905SOL    HW176156   3.756   1.895   4.535 -0.1642 -0.6301  2.7218
24905SOL    HW276157   3.849   2.001   4.589  1.5030 -0.9147  0.5360
24906SOL     OW76158   0.094   6.332   7.092  0.0074 -0.5805 -0.1136
24906SOL    HW176159   0.094   6.427   7.078  0.0946 -0.5405  0.1413
24906SOL    HW276160   0.071   6.295   7.007 -1.1290 -0.2958  0.0646
24907SOL     OW76161   5.029   5.070  11.040 -0.5057 -0.0868 -0.1519
24907SOL    HW176162   5.004   5.121  10.962 -1.3959  0.1851  0.2938
24907SOL    HW276163   4.946   5.035  11.073 -0.2111  0.2483  0.9853
24908SOL     OW76164   7.807   7.229   9.373  0.4417  0.0158 -0.0033
24908SOL    HW176165   7.828   7.135   9.368 -0.9140 -0.5913  3.3611
24908SOL    HW276166   7.726   7.238   9.323  1.3678 -0.2418 -1.6265
24909SOL     OW76167   4.906   6.227   3.369  0.0536 -0.1517 -0.1040
24909SOL    HW176168   4.968   6.186   3.309 -1.4865 -0.0368 -1.8387
24909SOL    HW276169   4.919   6.321   3.357 -1.8343 -0.0810 -2.0669
24910SOL     OW76170   2.724   0.805   9.654  0.2418  0.2631  0.0224
24910SOL    HW176171   2.637   0.800   9.615 -0.2095 -0.1138  1.0306
24910SOL    HW276172   2.777   0.742   9.604 -0.7478 -1.4374  0.9947
24911SOL     OW76173   3.624   7.644   4.518  0.3765  0.3714 -1.0820
24911SOL    HW176174   3.639   7.738   4.514  1.3288  0.4373  1.8549
24911SOL    HW276175   3.532   7.633   4.496  0.3226  1.9220 -1.7656
24912SOL     OW76176   0.403   7.440   7.190 -0.6576  0.1225  0.6200
24912SOL    HW176177   0.356   7.511   7.235  0.2252  1.5567 -0.5974
24912SOL    HW276178   0.386   7.362   7.242 -2.5755  1.0169  1.4246
24913SOL     OW76179   5.052   6.080   0.359  0.5625  0.1228 -0.1297
24913SOL    HW176180   5.100   6.012   0.311  0.5167  0.6233 -0.9117
24913SOL    HW276181   5.016   6.136   0.290 -2.6166 -1.1630  0.3070
24914SOL     OW76182   2.027   4.402   2.169  0.1652 -0.0980  0.2453
24914SOL    HW176183   1.970   4.406   2.092 -0.1935  2.7283  0.5460
24914SOL    HW276184   2.083   4.326   2.153 -2.1945 -1.7050 -1.0977
24915SOL     OW76185   1.763   2.392   5.679  0.5687 -0.1402  0.0612
24915SOL    HW176186   1.780   2.396   5.584  2.1352 -1.3023  0.2579
24915SOL    HW276187   1.845   2.420   5.719 -0.2493  0.8605  1.1122
24916SOL     OW76188   2.263   1.999   6.642  0.1657 -0.0913  0.4315
24916SOL    HW176189   2.306   2.081   6.620  1.7413 -0.3004  2.4676
24916SOL    HW276190   2.189   2.024   6.696  1.3846 -0.0136  2.1354
24917SOL     OW76191   7.579   0.139   5.939 -0.3505 -0.5386 -0.7968
24917SOL    HW176192   7.628   0.057   5.944  1.3288  0.4679  0.6203
24917SOL    HW276193   7.575   0.170   6.030  0.1166  1.5299 -1.4228
24918SOL     OW76194   7.347   4.324   6.606  0.0324  0.1788 -0.0262
24918SOL    HW176195   7.364   4.236   6.572 -0.0979 -0.1422  0.7009
24918SOL    HW276196   7.381   4.383   6.540  0.1637 -0.4245 -0.5059
24919SOL     OW76197   7.498   3.194   2.600 -0.2695 -0.0712 -0.1544
24919SOL    HW176198   7.487   3.109   2.641  0.1223 -0.1263 -0.1591
24919SOL    HW276199   7.583   3.189   2.555 -1.0959 -0.3189 -1.7314
24920SOL     OW76200   1.789   5.341   0.376  0.0738 -0.6500  0.1258
24920SOL    HW176201   1.773   5.247   0.372 -0.6329 -0.4962 -1.0924
24920SOL    HW276202   1.827   5.355   0.463 -1.3067 -1.8352  0.9725
24921SOL     OW76203   4.662   3.469   4.400  0.7421  0.6705 -0.3403
24921SOL    HW176204   4.693   3.553   4.368 -2.2034  1.1901 -2.1653
24921SOL    HW276205   4.614   3.431   4.327 -2.9405  0.0746  2.1172
24922SOL     OW76206   6.772   1.741   3.462 -0.8463 -0.2231 -0.0602
24922SOL    HW176207   6.735   1.674   3.519 -0.0401  0.2051  1.0015
24922SOL    HW276208   6.701   1.804   3.450 -0.9753 -0.2318  0.6250
24923SOL     OW76209   5.331   1.851   3.731  0.5186 -0.1423  0.3801
24923SOL    HW176210   5.265   1.799   3.684  0.2120  0.9452 -0.4178
24923SOL    HW276211   5.300   1.941   3.725  1.3733  0.2254  1.2057
24924SOL     OW76212   5.732   4.385   9.565 -0.0489 -0.3281  0.1083
24924SOL    HW176213   5.803   4.400   9.501 -0.0563  0.8526  0.3434
24924SOL    HW276214   5.696   4.472   9.580  0.1686 -0.5299  1.9868
24925SOL     OW76215   4.151   7.014   4.093  0.5734 -0.0019 -0.7118
24925SOL    HW176216   4.138   6.931   4.047  0.7713  0.1392 -1.0211
24925SOL    HW276217   4.117   6.997   4.181  0.7539 -0.4598 -0.7262
24926SOL     OW76218   6.258   4.166  10.453  0.3074 -0.0170  0.3018
24926SOL    HW176219   6.320   4.160  10.526 -0.7695  0.5035  1.3023
24926SOL    HW276220   6.173   4.177  10.495 -0.6734 -1.9922 -0.9956
24927SOL     OW76221   3.128   3.093  11.260 -0.0117  0.0273 -0.3258
24927SOL    HW176222   3.222   3.112  11.262 -0.3015  1.5412  0.5061
24927SOL    HW276223   3.104   3.101  11.167  0.9784 -2.1454 -0.8107
24928SOL     OW76224   7.653   1.829   5.996 -0.1796  0.1667 -0.3333
24928SOL    HW176225   7.708   1.868   5.929 -0.2607 -0.6950 -0.9140
24928SOL    HW276226   7.715   1.797   6.062 -0.0840  0.6956 -0.1614
24929SOL     OW76227   1.579   6.330  11.731  0.3296 -0.2164  0.0014
24929SOL    HW176228   1.500   6.276  11.725 -0.8464  1.2878  0.9901
24929SOL    HW276229   1.610   6.317  11.820  0.8930 -0.3754 -0.2141
24930SOL     OW76230   3.236   7.484  11.991  0.0698  0.6730  0.1947
24930SOL    HW176231   3.303   7.485  11.922 -0.3002 -0.3331 -0.2006
24930SOL    HW276232   3.205   7.393  11.993  0.0930  0.6726  1.7184
24931SOL     OW76233   7.962   1.022   2.476  0.0150  0.2833  0.2286
24931SOL    HW176234   7.967   0.939   2.525  0.6416 -0.0816 -0.4211
24931SOL    HW276235   7.957   1.089   2.544  0.3260 -0.2400  0.7885
24932SOL     OW76236   2.591   2.334   9.646  0.4486 -0.2310 -0.2195
24932SOL    HW176237   2.594   2.405   9.582  0.2859  0.9521  1.0383
24932SOL    HW276238   2.528   2.271   9.610  0.4562  0.3381 -1.2574
24933SOL     OW76239   5.817   5.772   9.556  0.6204  0.2505 -0.2963
24933SOL    HW176240   5.791   5.842   9.617 -1.2735  0.9273 -1.7675
24933SOL    HW276241   5.912   5.783   9.546  0.7760  0.9370  1.4999
24934SOL     OW76242   6.243   3.521   4.146 -0.4755  0.1156 -0.2853
24934SOL    HW176243   6.245   3.567   4.230 -0.4429 -1.4235  0.5987
24934SOL    HW276244   6.332   3.490   4.133 -0.2431  1.2128 -1.4113
24935SOL     OW76245   6.874   6.188   5.485  0.2839 -0.2918 -0.5342
24935SOL    HW176246   6.901   6.279   5.472 -0.9848  0.0052 -1.2274
24935SOL    HW276247   6.807   6.173   5.418  0.9962 -1.9743 -0.9197
24936SOL     OW76248   5.854   5.019   4.669  0.1312 -0.1301  0.2558
24936SOL    HW176249   5.833   4.951   4.733  2.2953  0.3765  1.6129
24936SOL    HW276250   5.903   4.973   4.600 -1.6840 -0.5645 -0.8175
24937SOL     OW76251   3.508   6.599   0.715  0.2500 -0.3008 -0.2470
24937SOL    HW176252   3.475   6.572   0.629  1.2338 -0.1020 -0.7135
24937SOL    HW276253   3.540   6.688   0.701  1.5018 -0.6798 -0.0031
24938SOL     OW76254   2.507   4.577   3.519 -0.1216 -0.1260 -0.0170
24938SOL    HW176255   2.512   4.563   3.424 -1.1440 -1.6183  0.1077
24938SOL    HW276256   2.510   4.672   3.530  2.5626  0.0595 -1.3533
24939SOL     OW76257   4.960   4.452  12.361  0.2614  0.3323  0.1457
24939SOL    HW176258   5.037   4.481  12.313 -0.4090  1.5795 -0.2104
24939SOL    HW276259   4.918   4.532  12.391 -0.6961 -0.3387  0.6672
24940SOL     OW76260   0.126   3.968   3.269  0.0072 -0.4585  0.0380
24940SOL    HW176261   0.142   4.015   3.351  0.4307 -1.2808  0.4423
24940SOL    HW276262   0.080   3.888   3.296 -0.8560 -0.2109 -0.6556
24941SOL     OW76263   1.363   6.471  11.286 -0.3380  0.0680  0.4276
24941SOL    HW176264   1.338   6.563  11.292 -0.6214  0.0392 -0.2552
24941SOL    HW276265   1.381   6.445  11.377 -1.4131  0.4756  0.7739
24942SOL     OW76266   3.786   0.787  11.564  0.9304 -0.1857  0.7027
24942SOL    HW176267   3.756   0.878  11.567  0.6301 -0.3062  2.4546
24942SOL    HW276268   3.716   0.740  11.520  1.1118  0.4216 -0.2645
24943SOL     OW76269   5.161   1.901  10.516  0.3133  0.0763  0.0016
24943SOL    HW176270   5.074   1.940  10.512 -0.2744 -1.2638 -1.5934
24943SOL    HW276271   5.218   1.966  10.475 -0.1030  0.5366  0.1454
24944SOL     OW76272   3.073   2.398   8.458 -0.2095 -0.1918 -0.0421
24944SOL    HW176273   3.110   2.348   8.385  1.3440 -0.7688  1.0785
24944SOL    HW276274   2.983   2.417   8.431  0.5173  0.2357 -2.4072
24945SOL     OW76275   1.815   0.159   2.387 -0.0632  0.4655  0.3282
24945SOL    HW176276   1.882   0.128   2.327 -0.7555 -0.0881 -0.1785
24945SOL    HW276277   1.765   0.223   2.338 -1.6920 -1.1957 -0.3333
24946SOL     OW76278   1.330   0.374   9.462 -0.4238  0.6360 -0.7331
24946SOL    HW176279   1.376   0.422   9.393 -1.2589  0.4474 -1.4329
24946SOL    HW276280   1.257   0.430   9.487 -1.1037 -0.0181 -1.1935
24947SOL     OW76281   3.216   0.171   0.287 -0.3629 -0.6384  0.2919
24947SOL    HW176282   3.125   0.202   0.281  0.3835  1.7324  0.2602
24947SOL    HW276283   3.255   0.226   0.355  2.0616  1.3472 -2.4389
24948SOL     OW76284   3.723   2.369   7.911 -0.0208  0.0017  0.1341
24948SOL    HW176285   3.764   2.403   7.991  1.2334 -1.6820  0.2792
24948SOL    HW276286   3.642   2.327   7.941 -0.3006  0.6490  0.2981
24949SOL     OW76287   7.855   6.893   0.711 -0.1331 -0.4029 -0.1672
24949SOL    HW176288   7.824   6.944   0.787  1.5347 -0.1441  0.3798
24949SOL    HW276289   7.791   6.913   0.642  0.0819  1.9516  0.2115
24950SOL     OW76290   0.579   5.640   9.603 -0.2324  1.2474 -0.7730
24950SOL    HW176291   0.657   5.586   9.584 -0.1844  0.9500  0.2201
24950SOL    HW276292   0.505   5.585   9.577 -0.1735  0.7761  0.0211
24951SOL     OW76293   5.300   2.641   0.394  0.0440 -0.2306  0.3079
24951SOL    HW176294   5.344   2.565   0.358 -2.4872 -1.9214  0.5012
24951SOL    HW276295   5.242   2.605   0.462 -1.5962  1.7864  0.0743
24952SOL     OW76296   0.726   7.359  12.365 -0.6392 -0.3087 -0.0037
24952SOL    HW176297   0.709   7.423  12.295 -0.6960 -0.8922 -0.5306
24952SOL    HW276298   0.677   7.281  12.339  0.7266 -1.1214 -0.2090
24953SOL     OW76299   1.352   6.173   3.163  0.3618 -0.1672  1.1637
24953SOL    HW176300   1.269   6.127   3.159  0.7427 -0.8136 -1.1798
24953SOL    HW276301   1.366   6.205   3.074  2.1627  0.7754  1.7220
24954SOL     OW76302   7.695   3.237  11.777 -0.1555  0.4533 -0.4850
24954SOL    HW176303   7.619   3.179  11.772 -2.2451  2.8767  0.8431
24954SOL    HW276304   7.702   3.259  11.870  2.4081  0.1116 -0.5110
24955SOL     OW76305   1.886   3.633   0.307  0.6908 -0.6801  0.0380
24955SOL    HW176306   1.842   3.607   0.226  0.3295 -3.2765  0.9764
24955SOL    HW276307   1.968   3.674   0.278  0.1333 -0.6772 -1.6302
24956SOL     OW76308   6.555   1.890   3.518  0.2083  0.7371  0.4874
24956SOL    HW176309   6.460   1.879   3.510  0.1383  1.6837 -0.2152
24956SOL    HW276310   6.570   1.907   3.611 -0.3635  0.9414  0.5471
24957SOL     OW76311   6.441   7.019   6.995 -0.1041  0.3481  1.0427
24957SOL    HW176312   6.391   6.949   7.038  0.5053 -0.6091  0.2526
24957SOL    HW276313   6.533   6.995   7.009  0.1231 -0.2142 -1.0460
24958SOL     OW76314   4.526   7.564   6.694  0.3271 -0.2416  0.1577
24958SOL    HW176315   4.574   7.620   6.633  0.3625 -1.0616 -0.5902
24958SOL    HW276316   4.436   7.597   6.692  0.2004 -0.6286 -0.7983
24959SOL     OW76317   5.362   5.249   8.637  0.3884  0.2834  0.0334
24959SOL    HW176318   5.448   5.208   8.634 -0.4478 -1.7371  1.5683
24959SOL    HW276319   5.319   5.210   8.713 -2.1713  0.6571 -1.0999
24960SOL     OW76320   3.885   4.491   8.453 -0.0498 -0.6722 -0.3815
24960SOL    HW176321   3.928   4.423   8.505 -1.3425 -1.6419 -0.5250
24960SOL    HW276322   3.794   4.462   8.448 -0.3470  0.4086 -1.5668
24961SOL     OW76323   6.353   4.114   5.592  0.3191  0.4192  0.0193
24961SOL    HW176324   6.391   4.191   5.550  2.0548  0.7322  2.0352
24961SOL    HW276325   6.372   4.125   5.685  0.0344 -2.1359  0.4449
24962SOL     OW76326   0.472   1.699   4.864  0.3304 -0.5956 -0.2485
24962SOL    HW176327   0.549   1.643   4.875  0.3755 -0.5372 -0.2686
24962SOL    HW276328   0.507   1.788   4.859  0.3638 -0.6524 -1.3709
24963SOL     OW76329   4.003   6.403  12.227  0.0641  0.3571 -0.0784
24963SOL    HW176330   3.958   6.406  12.143  0.1937 -0.2844 -0.1799
24963SOL    HW276331   4.006   6.494  12.257 -2.3993  0.3066  0.5324
24964SOL     OW76332   1.562   3.282   2.363 -0.2628  0.1413 -0.3196
24964SOL    HW176333   1.473   3.247   2.370 -0.1079  0.0190  1.6798
24964SOL    HW276334   1.550   3.376   2.350 -0.6720  0.0836 -0.3726
24965SOL     OW76335   1.496   0.432  10.471  0.7002 -0.4857  0.1080
24965SOL    HW176336   1.481   0.338  10.483 -0.5951 -0.1030  2.1159
24965SOL    HW276337   1.573   0.450  10.525  0.7287 -0.3440  0.0186
24966SOL     OW76338   5.404   0.762   8.225 -0.7416 -0.1063  0.2309
24966SOL    HW176339   5.435   0.852   8.232 -1.1533 -0.0024  0.7862
24966SOL    HW276340   5.446   0.717   8.298 -1.1414 -0.1866  0.4113
24967SOL     OW76341   0.824   3.887   2.906 -0.1480 -0.4001  0.1973
24967SOL    HW176342   0.878   3.950   2.954 -0.2162 -0.3977  0.2720
24967SOL    HW276343   0.853   3.893   2.816  0.6456 -1.0785  0.3931
24968SOL     OW76344   6.611   2.493  10.461 -0.0058  0.0195 -0.3352
24968SOL    HW176345   6.666   2.505  10.383  0.5335 -1.1426 -0.1549
24968SOL    HW276346   6.522   2.499  10.428  0.2189  0.5291 -0.8771
24969SOL     OW76347   5.512   1.237   7.535  0.3007  0.3245  0.1933
24969SOL    HW176348   5.594   1.189   7.523 -0.4794 -1.8545  2.6020
24969SOL    HW276349   5.462   1.219   7.456  1.2343 -0.2070 -0.3023
24970SOL     OW76350   1.708   7.007   8.009 -0.7044  0.0263 -0.1431
24970SOL    HW176351   1.778   7.070   7.993 -1.7550  1.4081  0.5605
24970SOL    HW276352   1.677   7.026   8.097 -0.5868 -1.9538  0.3685
24971SOL     OW76353   2.090   2.864   2.084  0.1585 -0.0628 -0.4667
24971SOL    HW176354   2.065   2.923   2.155  0.9809  0.2530 -0.4292
24971SOL    HW276355   2.019   2.800   2.080 -0.5311  0.6610 -0.2147
24972SOL     OW76356   7.383   1.676   4.021  0.1490 -0.2920 -0.3799
24972SOL    HW176357   7.384   1.772   4.015 -1.6021 -0.1713  0.5847
24972SOL    HW276358   7.451   1.656   4.085  0.3035  0.3369 -0.3345
24973SOL     OW76359   0.424   0.157   8.849  0.0105 -0.0588  0.2849
24973SOL    HW176360   0.473   0.206   8.783 -0.3235  1.4097  1.0712
24973SOL    HW276361   0.420   0.216   8.924 -1.4698 -0.8195  0.8482
24974SOL     OW76362   6.466   6.228   2.526 -0.3380 -0.0260  0.2823
24974SOL    HW176363   6.389   6.199   2.573 -0.4837  0.6411  0.4619
24974SOL    HW276364   6.436   6.303   2.474  0.6811  1.7416  2.1224
24975SOL     OW76365   6.634   6.706   9.815 -0.1050  0.0957 -0.6570
24975SOL    HW176366   6.641   6.706   9.720 -0.7149 -1.1735 -0.7311
24975SOL    HW276367   6.711   6.657   9.844 -0.5870 -0.6340 -0.5856
24976SOL     OW76368   2.442   1.103  10.508 -0.1719  0.6017  0.7128
24976SOL    HW176369   2.378   1.084  10.576 -0.7821  1.8162  0.5076
24976SOL    HW276370   2.463   1.196  10.521  1.4134  0.2799  0.6598
24977SOL     OW76371   4.459   3.271  11.206 -0.2212 -0.1553 -0.6891
24977SOL    HW176372   4.489   3.350  11.251 -0.4513  0.0780 -0.9433
24977SOL    HW276373   4.539   3.235  11.167 -0.5144  1.5950 -3.1353
24978SOL     OW76374   7.358   2.527  11.649  0.1143 -0.3926  0.3301
24978SOL    HW176375   7.420   2.537  11.721  1.4922 -2.4953 -0.4634
24978SOL    HW276376   7.302   2.454  11.675 -2.2901  1.6077  1.1311
24979SOL     OW76377   7.657   3.031   1.611 -0.0108  0.0072  0.1101
24979SOL    HW176378   7.583   3.021   1.551 -0.7054  0.8152  0.8253
24979SOL    HW276379   7.670   2.943   1.647  0.0096 -0.3513 -0.7370
24980SOL     OW76380   5.047   1.905   7.028 -0.0301 -0.1865  0.1334
24980SOL    HW176381   4.985   1.838   7.056 -0.3180 -0.0595 -0.1855
24980SOL    HW276382   5.123   1.895   7.086  0.2078 -1.2282 -0.3447
24981SOL     OW76383   1.282   1.337   8.837  0.3500 -0.8704  0.3542
24981SOL    HW176384   1.259   1.351   8.745  1.6042  0.1843  0.1713
24981SOL    HW276385   1.377   1.329   8.838  0.3378 -1.0946  1.5309
24982SOL     OW76386   5.477   4.144   5.591 -0.5856  0.4075 -0.1580
24982SOL    HW176387   5.495   4.092   5.513 -1.0991 -0.6357  0.3897
24982SOL    HW276388   5.560   4.184   5.613 -0.9628  2.8657 -2.7034
24983SOL     OW76389   4.458   2.221  11.076 -0.3908 -0.2080  0.2563
24983SOL    HW176390   4.528   2.169  11.114 -0.8116 -0.3359  0.8569
24983SOL    HW276391   4.462   2.200  10.982  0.0772 -0.5577  0.3482
24984SOL     OW76392   0.425   2.428  10.934  0.2686 -0.4482 -0.5637
24984SOL    HW176393   0.433   2.426  10.839 -1.0756 -0.3414 -0.6982
24984SOL    HW276394   0.495   2.487  10.963  0.5840 -0.3502 -1.4912
24985SOL     OW76395   5.539   6.981  10.933  0.0035 -0.7999  0.1914
24985SOL    HW176396   5.617   7.025  10.967  1.3355 -1.8906 -1.3282
24985SOL    HW276397   5.467   7.024  10.978  1.2729  2.0614 -0.2534
24986SOL     OW76398   7.497   3.231   7.758  0.2610  0.1020 -0.0377
24986SOL    HW176399   7.569   3.277   7.715  1.3755  0.3619  1.9744
24986SOL    HW276400   7.504   3.141   7.725  0.3833  0.5045 -1.1720
24987SOL     OW76401   2.175   6.105   5.330 -0.3986  0.5906  0.4754
24987SOL    HW176402   2.137   6.055   5.402  1.1975  0.8405  1.5529
24987SOL    HW276403   2.270   6.097   5.343 -0.0799  1.1240 -1.2773
24988SOL     OW76404   3.938   2.597   9.948 -0.8533 -0.1938 -0.3184
24988SOL    HW176405   4.016   2.588   9.894  1.0445  0.1123  2.1546
24988SOL    HW276406   3.887   2.519   9.931  0.9365 -1.3315 -0.6857
24989SOL     OW76407   7.649   7.256  11.994  0.1616  0.2438  1.1257
24989SOL    HW176408   7.651   7.338  11.946  1.1216 -1.6542 -2.3629
24989SOL    HW276409   7.732   7.213  11.974 -1.1363 -2.4728  1.0981
24990SOL     OW76410   6.970   6.607  10.450 -0.1030 -0.4320  0.0509
24990SOL    HW176411   6.929   6.632  10.532 -2.3277  2.6423 -1.7843
24990SOL    HW276412   7.020   6.685  10.423  1.6085 -1.7940 -0.9699
24991SOL     OW76413   0.529   3.565   3.946 -0.2431  0.8577  0.1030
24991SOL    HW176414   0.488   3.486   3.911 -0.8081  0.8086  0.8369
24991SOL    HW276415   0.608   3.577   3.894 -0.2548 -0.0871 -0.1459
24992SOL     OW76416   0.699   4.004   3.194  0.3801  0.6306 -0.0423
24992SOL    HW176417   0.667   4.092   3.173  0.2395  0.4651 -0.5388
24992SOL    HW276418   0.688   3.996   3.289 -1.1615  0.5379 -0.2093
24993SOL     OW76419   1.729   4.209  10.193 -0.2144 -0.2206  0.5605
24993SOL    HW176420   1.680   4.174  10.118 -0.7998 -0.3326  0.9893
24993SOL    HW276421   1.761   4.294  10.163 -1.2191  0.1426  0.4857
24994SOL     OW76422   1.614   6.199   8.336  0.1929  0.1434  0.1323
24994SOL    HW176423   1.597   6.123   8.392  1.9345  1.2633  2.3559
24994SOL    HW276424   1.677   6.167   8.271 -0.0599 -0.6301  0.2574
24995SOL     OW76425   4.502   3.264   7.793 -0.4940  0.1079 -0.0644
24995SOL    HW176426   4.446   3.239   7.719 -0.3598  2.0859 -0.8845
24995SOL    HW276427   4.442   3.268   7.868 -1.4661  1.8789 -0.8682
24996SOL     OW76428   6.433   5.530   5.575 -0.0343  0.0070  0.1341
24996SOL    HW176429   6.372   5.596   5.541  0.6457 -0.0978 -1.3636
24996SOL    HW276430   6.465   5.485   5.497  1.9711  0.0605  0.8798
24997SOL     OW76431   5.653   0.657   2.731  0.8232 -0.0310 -0.0457
24997SOL    HW176432   5.614   0.643   2.645 -0.2599  1.1519  0.2267
24997SOL    HW276433   5.580   0.652   2.792  1.4145  0.2147  0.7042
24998SOL     OW76434   3.236   2.711   1.254  0.5297  0.0317 -0.5464
24998SOL    HW176435   3.273   2.650   1.317  1.9857  0.5991 -0.8073
24998SOL    HW276436   3.158   2.667   1.220  2.8104 -2.8284 -2.5681
24999SOL     OW76437   5.063   4.616   7.699  0.6224 -0.5107 -0.3855
24999SOL    HW176438   5.109   4.669   7.634 -0.3267  0.1612 -0.5296
24999SOL    HW276439   5.130   4.557   7.733  1.1300 -0.9205 -2.0036
25000SOL     OW76440   4.557   1.681   3.699  0.7528  0.2761 -0.1958
25000SOL    HW176441   4.512   1.623   3.637 -1.2548  0.9134  0.5920
25000SOL    HW276442   4.500   1.757   3.707  3.1792  2.3333 -1.0036
25001SOL     OW76443   7.522   4.429   9.197  0.0637  0.6051 -0.0630
25001SOL    HW176444   7.551   4.500   9.140 -1.4517  0.1740 -1.4435
25001SOL    HW276445   7.426   4.434   9.194 -0.0544 -0.2077  1.4824
25002SOL     OW76446   4.841   7.593   8.308 -0.3786 -0.1319  0.0988
25002SOL    HW176447   4.875   7.682   8.312 -1.4090  0.2490  0.8361
25002SOL    HW276448   4.762   7.600   8.255 -0.3576 -0.6572 -0.0115
25003SOL     OW76449   3.442   6.241   4.204 -0.0171  0.7460  0.3596
25003SOL    HW176450   3.455   6.186   4.126  1.5803 -0.7410  1.5739
25003SOL    HW276451   3.348   6.236   4.222 -0.0593 -0.8043 -0.1523
25004SOL     OW76452   4.296   1.703   2.813  0.3137 -0.5389 -0.2585
25004SOL    HW176453   4.360   1.747   2.757 -1.6540 -0.3701 -2.5733
25004SOL    HW276454   4.213   1.713   2.766 -0.9863 -2.9124  1.3405
25005SOL     OW76455   0.495   0.469   5.463 -0.2423 -0.6083 -0.7843
25005SOL    HW176456   0.414   0.487   5.512  0.9420 -0.1999  1.1396
25005SOL    HW276457   0.499   0.373   5.459  0.0805 -0.6884  0.7816
25006SOL     OW76458   6.248   4.395  11.554 -0.2654 -0.2765 -0.2954
25006SOL    HW176459   6.259   4.488  11.536  0.9729 -0.6778 -1.8418
25006SOL    HW276460   6.256   4.388  11.649  0.0569  1.1325 -0.1965
25007SOL     OW76461   3.143   6.538   6.836 -0.2690  0.3003 -0.2603
25007SOL    HW176462   3.178   6.495   6.914 -0.8708  1.3465  0.6108
25007SOL    HW276463   3.140   6.631   6.858 -0.0189  0.6742 -1.7089
25008SOL     OW76464   1.620   3.313  11.230 -0.0874 -0.5274 -0.1970
25008SOL    HW176465   1.592   3.345  11.144 -0.9304 -1.0475 -0.1262
25008SOL    HW276466   1.663   3.388  11.271 -2.7964  0.8509  0.3355
25009SOL     OW76467   5.186   2.244   8.996 -0.0270  0.2722 -0.4777
25009SOL    HW176468   5.181   2.276   9.086  1.3668 -0.1251 -0.2226
25009SOL    HW276469   5.209   2.151   9.006 -0.2709  0.1286 -1.2425
25010SOL     OW76470   6.695   5.214   4.625 -0.0362 -0.2250  0.1548
25010SOL    HW176471   6.773   5.242   4.672  0.9220 -1.1058 -0.8247
25010SOL    HW276472   6.701   5.118   4.623 -0.3269 -0.2442 -1.2489
25011SOL     OW76473   2.908   6.403   6.765  0.1538 -0.3272  0.1623
25011SOL    HW176474   2.942   6.327   6.718  1.0100  1.4483 -2.2723
25011SOL    HW276475   2.986   6.454   6.788 -0.5076  0.9107 -0.2467
25012SOL     OW76476   4.103   3.212  10.617  0.2994 -0.4690 -1.0300
25012SOL    HW176477   4.062   3.231  10.702  2.5101  1.6255 -0.3271
25012SOL    HW276478   4.187   3.258  10.620  0.5709 -0.5260 -4.2829
25013SOL     OW76479   2.145   0.483   6.491  0.2595  0.0625  0.7197
25013SOL    HW176480   2.117   0.551   6.430  1.9045 -1.1315 -1.5106
25013SOL    HW276481   2.190   0.530   6.560 -1.2246  1.4261  0.8164
25014SOL     OW76482   1.533   0.035   8.360  0.6439 -0.2517 -0.1346
25014SOL    HW176483   1.615  -0.014   8.357  1.3651  0.7686  1.4712
25014SOL    HW276484   1.487   0.000   8.438  0.2173  0.1767 -0.1872
25015SOL     OW76485   2.276   4.845   3.382  0.5286  0.2520 -0.2236
25015SOL    HW176486   2.269   4.769   3.323  1.8570  0.6526 -0.9333
25015SOL    HW276487   2.186   4.872   3.397  0.0885 -0.8229 -0.8218
25016SOL     OW76488   2.982   7.649   4.394  0.1518  0.2451 -0.0570
25016SOL    HW176489   3.050   7.693   4.445  0.0481  1.6548 -1.0700
25016SOL    HW276490   2.908   7.641   4.454  1.1511 -1.2808  1.0497
25017SOL     OW76491   4.463   7.519  11.646  0.0497  0.0561  0.2565
25017SOL    HW176492   4.379   7.500  11.687 -0.7618  1.2483 -0.7729
25017SOL    HW276493   4.450   7.494  11.554  1.0917 -0.4995  0.2504
25018SOL     OW76494   4.976   5.956   7.821 -0.3699 -0.2838  0.2047
25018SOL    HW176495   4.889   5.923   7.843  0.8617 -2.4216  2.3090
25018SOL    HW276496   4.978   6.044   7.858 -1.8068 -0.0016 -0.3456
25019SOL     OW76497   6.898   5.120   5.985 -0.1523  0.4963  0.0526
25019SOL    HW176498   6.914   5.033   5.947 -0.7014  0.2655  0.3529
25019SOL    HW276499   6.874   5.175   5.910 -2.5253 -0.2608  0.1868
25020SOL     OW76500   6.861   4.516   9.409  0.0053 -0.3049 -0.3410
25020SOL    HW176501   6.894   4.554   9.328  2.3285 -0.6326  0.3820
25020SOL    HW276502   6.884   4.424   9.403 -1.1854 -0.6440  0.0536
25021SOL     OW76503   3.386   7.358   5.687  0.5188  0.4411  0.1527
25021SOL    HW176504   3.307   7.362   5.633 -0.1811 -0.1521  1.0998
25021SOL    HW276505   3.428   7.276   5.662  1.0524  0.9482 -0.6347
25022SOL     OW76506   0.265   5.820  10.291 -0.0113  0.2506  0.4801
25022SOL    HW176507   0.351   5.804  10.253  0.3956 -0.0898  1.5293
25022SOL    HW276508   0.227   5.888  10.235  0.9376  0.4211  0.0209
25023SOL     OW76509   0.707   0.643   1.890 -0.6879  0.4950  0.4969
25023SOL    HW176510   0.674   0.571   1.944  0.1475 -1.7325 -1.7922
25023SOL    HW276511   0.670   0.626   1.804  0.3180  2.3064 -0.3303
25024SOL     OW76512   6.600   2.030   8.114 -0.2569  0.2217  0.0756
25024SOL    HW176513   6.618   1.956   8.171 -0.7292  1.2431  1.6316
25024SOL    HW276514   6.507   2.020   8.091 -0.2920  0.2688  0.1954
25025SOL     OW76515   4.836   0.830   9.299 -0.3942 -0.6377  0.1817
25025SOL    HW176516   4.816   0.904   9.355 -1.3841  0.0959 -1.0889
25025SOL    HW276517   4.931   0.836   9.285 -0.5195  0.6909 -0.2780
25026SOL     OW76518   3.072   3.326  10.610 -0.2441  0.1250 -0.2398
25026SOL    HW176519   3.085   3.391  10.541  0.2692 -0.7640 -1.0086
25026SOL    HW276520   3.024   3.255  10.568  0.0274 -0.4086  0.3254
25027SOL     OW76521   0.673   7.232  10.142 -0.1488  0.5286  0.1789
25027SOL    HW176522   0.706   7.174  10.073 -1.9471  1.4390 -1.5526
25027SOL    HW276523   0.686   7.321  10.107 -0.7113  1.0347  1.1986
25028SOL     OW76524   5.370   5.094   5.248  0.1562  0.3748 -0.4161
25028SOL    HW176525   5.300   5.030   5.260  0.6759  0.0913  1.4251
25028SOL    HW276526   5.451   5.043   5.259  0.6775  0.7596 -2.1809
25029SOL     OW76527   3.075   4.990  11.490 -0.2142  0.2906  0.4956
25029SOL    HW176528   3.123   5.064  11.454  1.8032 -1.9396 -1.8088
25029SOL    HW276529   3.138   4.946  11.547 -0.8177 -0.5405  0.5373
25030SOL     OW76530   1.199   4.478   6.548 -0.0177 -0.2151 -0.2737
25030SOL    HW176531   1.208   4.419   6.474 -1.7998 -0.3919 -0.3968
25030SOL    HW276532   1.207   4.566   6.510 -0.5499 -0.3129 -0.6167
25031SOL     OW76533   7.098   1.126   5.413  0.5716  0.2762 -0.0017
25031SOL    HW176534   7.176   1.113   5.358  2.0537 -0.1047  2.0920
25031SOL    HW276535   7.025   1.101   5.357  2.0942 -1.2160 -1.4325
25032SOL     OW76536   6.378   7.030   6.410 -0.2938  0.3297 -0.6171
25032SOL    HW176537   6.445   7.095   6.392  0.4390 -0.5071 -0.9546
25032SOL    HW276538   6.426   6.956   6.446 -1.4683  1.3668  3.7004
25033SOL     OW76539   1.160   2.875   2.638 -0.3180 -0.1273 -0.0272
25033SOL    HW176540   1.148   2.879   2.733  2.0945  1.3758  0.3099
25033SOL    HW276541   1.134   2.961   2.606  0.8576  0.1218 -0.3921
25034SOL     OW76542   3.020   5.110   0.624  0.0680  0.1461  0.0047
25034SOL    HW176543   3.005   5.093   0.718  0.6071  2.6651  0.6170
25034SOL    HW276544   3.114   5.093   0.612 -0.0125 -0.2324 -0.1199
25035SOL     OW76545   6.764   1.643   4.318  0.1723 -0.5484 -0.3654
25035SOL    HW176546   6.794   1.627   4.407  0.4153 -1.7324 -0.6446
25035SOL    HW276547   6.844   1.666   4.269 -0.0945  1.1276 -0.0902
25036SOL     OW76548   6.917   3.098  10.971 -0.3323 -0.4365 -0.1129
25036SOL    HW176549   6.871   3.104  10.887 -1.1255 -1.9006  0.1795
25036SOL    HW276550   6.847   3.097  11.036  0.2227 -0.7066  0.4839
25037SOL     OW76551   3.976   1.660   2.874 -0.1267 -0.5831  0.3882
25037SOL    HW176552   4.006   1.585   2.824 -1.2889  0.1381 -1.4699
25037SOL    HW276553   3.925   1.622   2.946  1.1825 -1.6106  0.8129
25038SOL     OW76554   5.663   2.970   6.839  0.3562  0.1552  0.1847
25038SOL    HW176555   5.575   2.947   6.808  0.7253  1.3634 -1.9643
25038SOL    HW276556   5.672   2.924   6.922 -1.5449 -1.6220 -0.5062
25039SOL     OW76557   7.730   6.621   5.837 -0.0436  0.1392 -0.4859
25039SOL    HW176558   7.792   6.686   5.870  3.1096 -2.5753 -0.6057
25039SOL    HW276559   7.757   6.606   5.747 -1.8516 -0.1246 -1.0152
25040SOL     OW76560   3.384   0.405   3.937 -0.3319 -0.3390  0.5291
25040SOL    HW176561   3.440   0.396   4.015  0.2194 -0.0361  0.1752
25040SOL    HW276562   3.438   0.371   3.866  0.9976  3.4725 -0.5221
25041SOL     OW76563   5.987   0.038   7.009 -0.2600 -0.0711  0.2433
25041SOL    HW176564   6.077   0.069   7.024  0.3381 -1.7299  0.2666
25041SOL    HW276565   5.956   0.090   6.934  0.7990  0.3542  0.0812
25042SOL     OW76566   7.771   2.546   8.361  0.6942 -0.2698  0.2790
25042SOL    HW176567   7.732   2.500   8.436 -0.1767 -1.5954 -0.9250
25042SOL    HW276568   7.791   2.477   8.299  3.2713  0.5911  0.0486
25043SOL     OW76569   4.812   6.990  12.358 -0.2993 -0.0619  0.3996
25043SOL    HW176570   4.779   6.915  12.408 -0.3776 -0.8978 -0.8715
25043SOL    HW276571   4.836   6.954  12.273  0.8613  1.1303  0.1839
25044SOL     OW76572   4.632   5.884   9.927  0.2556 -0.1208 -0.1697
25044SOL    HW176573   4.648   5.909  10.018  0.4551 -0.7048 -0.0393
25044SOL    HW276574   4.538   5.869   9.922 -0.5755  4.1263 -1.1353
25045SOL     OW76575   6.527   3.252   2.291 -0.5374  0.3038 -0.0741
25045SOL    HW176576   6.525   3.343   2.320 -2.4860  0.8975 -1.8089
25045SOL    HW276577   6.461   3.247   2.222  0.3277 -2.1641 -0.8584
25046SOL     OW76578   6.630   1.779  11.352 -0.3242  0.0631 -0.4439
25046SOL    HW176579   6.645   1.695  11.311  1.0123 -0.0527  0.2187
25046SOL    HW276580   6.663   1.843  11.289  0.7721 -0.0523  0.0041
25047SOL     OW76581   4.770   0.203  10.678  0.0570  0.0333  0.0018
25047SOL    HW176582   4.810   0.278  10.721  0.1449  1.2935 -2.1255
25047SOL    HW276583   4.839   0.137  10.675  0.0924 -0.0351  1.5606
25048SOL     OW76584   1.455   4.332   2.374 -0.0674 -0.2862 -0.6215
25048SOL    HW176585   1.393   4.262   2.391  0.6648 -0.6082  0.8183
25048SOL    HW276586   1.533   4.288   2.340  1.3180 -0.5493  2.5615
25049SOL     OW76587   5.480   3.760   7.809 -0.1326 -0.1373  0.1821
25049SOL    HW176588   5.467   3.852   7.783 -1.6112 -0.2801  0.3419
25049SOL    HW276589   5.519   3.765   7.896  1.6070  0.3222 -0.5675
25050SOL     OW76590   5.027   3.998   9.722  0.7843 -0.0978 -0.4683
25050SOL    HW176591   5.065   4.059   9.658 -1.6061  1.6287 -0.3454
25050SOL    HW276592   5.037   4.043   9.806  0.2324 -0.5144 -0.1818
25051SOL     OW76593   2.982   7.711   9.153  0.7896  0.2037  0.4356
25051SOL    HW176594   3.046   7.734   9.086  0.3980  2.0414  0.6558
25051SOL    HW276595   3.019   7.633   9.195  1.3840 -0.5708 -1.4137
25052SOL     OW76596   6.069   2.926   5.710 -0.5565 -0.0405 -0.5286
25052SOL    HW176597   6.050   2.850   5.765 -0.1626 -0.1959 -0.6095
25052SOL    HW276598   6.159   2.949   5.731 -0.5298  0.1339 -0.8316
25053SOL     OW76599   5.559   3.666   1.160  0.7897 -0.1006 -0.5039
25053SOL    HW176600   5.469   3.686   1.188  1.3804  2.7582 -0.3180
25053SOL    HW276601   5.559   3.679   1.066  0.7286 -1.4039 -0.6936
25054SOL     OW76602   3.774   0.227  11.296  0.1764 -0.1811 -0.2649
25054SOL    HW176603   3.695   0.276  11.273  0.0413 -1.2862 -2.4057
25054SOL    HW276604   3.753   0.136  11.274  1.3203 -0.8376  1.1736
25055SOL     OW76605   6.734   3.604   2.185 -0.3082 -0.3925 -0.2795
25055SOL    HW176606   6.806   3.567   2.236 -0.3266 -0.3953 -0.2559
25055SOL    HW276607   6.734   3.697   2.207  1.4223  0.1589 -2.3136
25056SOL     OW76608   4.140   3.577  11.742  0.1142  0.5071  0.0084
25056SOL    HW176609   4.061   3.553  11.694 -0.7738  2.6860  0.3011
25056SOL    HW276610   4.140   3.673  11.744  2.3973  0.5658  0.6306
25057SOL     OW76611   7.122   6.095  10.688  0.0891 -0.3066  0.2713
25057SOL    HW176612   7.161   6.007  10.689 -0.8121 -0.7298 -0.3629
25057SOL    HW276613   7.050   6.089  10.750  0.7114  0.3265  1.0673
25058SOL     OW76614   6.914   1.088   4.387 -0.2212  0.4460  0.1986
25058SOL    HW176615   6.872   1.160   4.435 -1.1194  1.0284 -1.3902
25058SOL    HW276616   6.844   1.023   4.376 -0.1190  0.4592 -0.5746
25059SOL     OW76617   7.468   0.162   7.767 -0.4244 -0.7636  0.0412
25059SOL    HW176618   7.402   0.136   7.703 -1.6919 -1.4520  1.5723
25059SOL    HW276619   7.477   0.086   7.824  0.2930  0.0151  0.9965
25060SOL     OW76620   6.704   0.624   2.081 -0.0952 -0.2746 -0.4000
25060SOL    HW176621   6.650   0.575   2.143 -0.1265 -0.9616 -0.9578
25060SOL    HW276622   6.676   0.715   2.092  0.4806 -0.2618  1.1798
25061SOL     OW76623   4.881   5.849  10.159  0.9504  0.4047  0.1264
25061SOL    HW176624   4.865   5.774  10.101  0.4655 -0.1137  0.9132
25061SOL    HW276625   4.964   5.885  10.128  0.0937  0.9489 -1.7416
25062SOL     OW76626   2.252   4.300   6.030  0.1819  0.3556 -0.3524
25062SOL    HW176627   2.273   4.355   5.954  2.1484 -0.6331 -0.5898
25062SOL    HW276628   2.320   4.322   6.094  0.2143 -0.8161  0.0349
25063SOL     OW76629   2.556   2.515   3.429  0.3753 -0.3219 -0.1029
25063SOL    HW176630   2.625   2.572   3.394  0.4165 -0.4600 -0.2483
25063SOL    HW276631   2.505   2.572   3.486  0.6707 -0.2408  0.0866
25064SOL     OW76632   5.917   6.170  11.088 -0.3865 -0.1440  0.1340
25064SOL    HW176633   5.957   6.234  11.148 -0.6464 -1.5864  1.9541
25064SOL    HW276634   5.824   6.174  11.109 -0.4081 -1.0630  0.2204
25065SOL     OW76635   2.918   6.235   2.658  0.0001  0.1978 -0.4766
25065SOL    HW176636   2.901   6.185   2.578 -1.0674 -0.4735  0.1406
25065SOL    HW276637   2.837   6.285   2.672 -0.2160 -0.4379  0.6909
25066SOL     OW76638   5.161   7.489   4.092  0.1195 -0.5070 -0.1618
25066SOL    HW176639   5.207   7.427   4.147 -0.0169 -0.4370  0.0317
25066SOL    HW276640   5.193   7.471   4.003 -0.5380 -1.4139 -0.2306
25067SOL     OW76641   7.824   1.250  10.417 -0.9838  0.2655  0.2740
25067SOL    HW176642   7.876   1.317  10.371 -0.5872  1.6130  2.5033
25067SOL    HW276643   7.738   1.291  10.428 -1.0063  0.0582  0.8804
25068SOL     OW76644   5.055   6.205   8.808  0.4714 -0.0342  0.3485
25068SOL    HW176645   5.137   6.161   8.785  0.9723  0.2725  1.4529
25068SOL    HW276646   4.986   6.146   8.779  1.1257 -1.5028  1.6498
25069SOL     OW76647   2.844   0.667  10.380 -0.1559  0.2019  0.6020
25069SOL    HW176648   2.900   0.712  10.317 -0.4179 -1.1830 -0.6882
25069SOL    HW276649   2.801   0.598  10.329 -1.3748 -0.1497  2.0324
25070SOL     OW76650   3.194   2.742   2.456  0.4827  0.0013 -0.2201
25070SOL    HW176651   3.121   2.730   2.517  1.8846 -0.5798  1.3997
25070SOL    HW276652   3.178   2.827   2.416 -1.3949 -0.3760 -0.3722
25071SOL     OW76653   2.574   1.016   4.076  0.0791 -0.4907  0.2595
25071SOL    HW176654   2.640   1.036   4.010 -1.6076  0.7936 -1.1339
25071SOL    HW276655   2.508   0.966   4.030 -0.8306 -0.1093  1.1133
25072SOL     OW76656   5.375   4.429  12.000 -0.1335 -0.0258  0.0094
25072SOL    HW176657   5.437   4.489  11.959 -0.0303 -0.2843 -0.2165
25072SOL    HW276658   5.387   4.346  11.953 -2.2468  0.4969 -1.6436
25073SOL     OW76659   5.793   3.829   9.670  0.0627  0.2218 -0.4358
25073SOL    HW176660   5.883   3.822   9.639  0.9407 -0.5712  2.0597
25073SOL    HW276661   5.739   3.814   9.592  2.0395  1.2081 -2.0861
25074SOL     OW76662   4.579   6.484   9.210  0.3222 -0.4142  0.6303
25074SOL    HW176663   4.605   6.393   9.223  0.2629 -0.5422 -0.1073
25074SOL    HW276664   4.652   6.523   9.162  0.1675 -0.1857  0.5798
25075SOL     OW76665   4.614   4.682   3.418  0.8194 -0.0126 -0.1446
25075SOL    HW176666   4.671   4.652   3.347  1.4005  0.3136  0.1722
25075SOL    HW276667   4.672   4.690   3.494  0.0303 -1.2560  0.6280
25076SOL     OW76668   0.160   5.835   5.611  0.1700 -0.3912 -0.4926
25076SOL    HW176669   0.159   5.752   5.659  1.4632  0.4148  1.0452
25076SOL    HW276670   0.211   5.817   5.532 -0.8035 -1.3999 -0.9119
25077SOL     OW76671   7.147   4.889   9.238 -0.1369  0.2796 -0.2259
25077SOL    HW176672   7.066   4.840   9.224  0.0172  0.0701 -0.4099
25077SOL    HW276673   7.122   4.981   9.232 -0.2190  0.2077 -1.1439
25078SOL     OW76674   5.984   6.081   7.874  0.3907  0.6903  0.1628
25078SOL    HW176675   6.028   6.123   7.948 -0.5256  0.1487  1.0386
25078SOL    HW276676   6.035   6.107   7.798  1.4296  1.1679  0.9981
25079SOL     OW76677   0.244   7.622   8.199 -0.2436 -0.1322  0.4917
25079SOL    HW176678   0.282   7.707   8.175 -0.1028 -0.2303  0.3650
25079SOL    HW276679   0.271   7.608   8.289  0.4965 -0.4597  0.2260
25080SOL     OW76680   2.872   7.886   6.754  0.0916  0.8856  0.0752
25080SOL    HW176681   2.942   7.840   6.801 -0.7818 -0.0036  0.5348
25080SOL    HW276682   2.877   7.976   6.786 -0.2013  0.3987  1.5536
25081SOL     OW76683   0.635   4.325   4.909 -0.1096 -0.5679  0.7619
25081SOL    HW176684   0.634   4.268   4.832 -4.2865 -1.3947  1.1970
25081SOL    HW276685   0.696   4.283   4.969  2.4328 -0.4836 -1.5413
25082SOL     OW76686   3.649   7.949  11.200 -0.5219  0.2355 -0.1945
25082SOL    HW176687   3.657   7.864  11.244 -1.3642  0.2842  0.0636
25082SOL    HW276688   3.664   7.929  11.107  0.5381  0.0157  0.0108
25083SOL     OW76689   6.186   4.341   7.047 -0.0820 -0.2980  0.1531
25083SOL    HW176690   6.159   4.287   6.973 -2.6818 -1.3557  1.7261
25083SOL    HW276691   6.244   4.283   7.098 -1.3294 -1.0141  0.8316
25084SOL     OW76692   1.012   2.708   4.609  0.5802  0.2243 -0.3629
25084SOL    HW176693   1.077   2.638   4.621 -0.0446 -0.2207  0.6029
25084SOL    HW276694   0.949   2.693   4.679  0.0775  1.3740 -0.5561
25085SOL     OW76695   5.124   6.289   3.952  0.0545  0.2955  0.0221
25085SOL    HW176696   5.052   6.240   3.913  0.8064 -0.1629 -0.8081
25085SOL    HW276697   5.170   6.327   3.878 -0.5611  2.3917  0.6259
25086SOL     OW76698   1.771   3.683   1.925  0.0580  0.8669 -0.1030
25086SOL    HW176699   1.795   3.650   2.012 -2.0654 -0.6380 -0.0033
25086SOL    HW276700   1.799   3.775   1.926  1.1044  0.5880  1.7378
25087SOL     OW76701   7.933   1.914   2.552 -0.3871  0.5726  0.8159
25087SOL    HW176702   7.981   1.994   2.573 -0.8240  0.4649  2.3659
25087SOL    HW276703   7.975   1.846   2.606 -0.9515  0.0689  0.6309
25088SOL     OW76704   0.803   4.937  10.756 -0.2981 -0.3437  0.0010
25088SOL    HW176705   0.807   4.945  10.661  1.3857  0.6066  0.1226
25088SOL    HW276706   0.878   4.987  10.788 -1.6326  0.5632  1.9093
25089SOL     OW76707   5.587   0.196   4.808 -0.3397  0.4449 -0.0167
25089SOL    HW176708   5.538   0.270   4.772 -3.1553 -0.9034  0.7200
25089SOL    HW276709   5.590   0.132   4.737  0.9703  0.7249 -0.2458
25090SOL     OW76710   5.788   6.130   8.205  0.0390 -0.4492 -0.2867
25090SOL    HW176711   5.800   6.050   8.256 -1.9395  0.3798  1.6517
25090SOL    HW276712   5.707   6.115   8.155 -0.7856  0.5603  0.6852
25091SOL     OW76713   5.181   1.635   6.626  0.2852 -0.0324  0.1786
25091SOL    HW176714   5.259   1.658   6.576  0.8681  0.2892  1.2113
25091SOL    HW276715   5.206   1.558   6.677 -0.1798 -0.1431  0.2430
25092SOL     OW76716   3.460   1.525  10.872 -0.4073  0.2756 -0.2002
25092SOL    HW176717   3.379   1.535  10.922 -1.1555 -0.7910 -1.1462
25092SOL    HW276718   3.525   1.574  10.922 -1.5016  0.6816  0.8825
25093SOL     OW76719   4.783   0.002  12.371  0.3023  0.2534  0.3996
25093SOL    HW176720   4.761   0.095  12.369  0.1298  0.2834  2.1828
25093SOL    HW276721   4.840  -0.007  12.448  0.0878 -1.1596  0.4110
25094SOL     OW76722   1.393   5.914   3.924 -0.0571 -0.0700  0.7488
25094SOL    HW176723   1.483   5.920   3.893 -0.5860 -1.1315 -1.1791
25094SOL    HW276724   1.383   5.823   3.951 -0.2739  0.2997  1.9846
25095SOL     OW76725   1.166   0.109   1.385  0.0848 -0.1349  0.5806
25095SOL    HW176726   1.134   0.190   1.424  2.0376  0.3789  1.2241
25095SOL    HW276727   1.229   0.075   1.448 -0.9762 -2.4014  0.5056
25096SOL     OW76728   7.193   3.168   0.033 -0.3817  0.0666 -0.4633
25096SOL    HW176729   7.114   3.153   0.084 -1.0589 -0.7060 -1.7015
25096SOL    HW276730   7.265   3.153   0.094 -1.1752 -0.8518  0.2553
25097SOL     OW76731   2.322   1.493   0.996  0.1686  0.2144 -0.0896
25097SOL    HW176732   2.231   1.492   1.024  0.4475 -0.5589  0.8359
25097SOL    HW276733   2.367   1.435   1.057  1.0623 -0.3812 -1.2633
25098SOL     OW76734   6.603   0.089   8.388 -0.3238  0.3690  0.7414
25098SOL    HW176735   6.521   0.131   8.362 -0.1416 -0.4617 -1.3436
25098SOL    HW276736   6.614   0.016   8.327  2.2270  0.7450  0.6223
25099SOL     OW76737   1.948   4.935   3.036 -0.2937  0.4655  0.5400
25099SOL    HW176738   1.930   4.848   3.070 -0.4512  0.7703  1.2457
25099SOL    HW276739   1.872   4.957   2.983  0.0376 -0.0887 -0.1810
25100SOL     OW76740   3.953   0.020   1.367 -0.3523 -0.1898  1.0557
25100SOL    HW176741   3.957   0.047   1.459 -1.5276  1.3546  0.6779
25100SOL    HW276742   3.866   0.045   1.338  0.2268 -0.0684 -0.6750
25101SOL     OW76743   0.066   2.426   6.000 -0.0675  0.2949  0.0014
25101SOL    HW176744   0.055   2.515   5.965  0.6893  0.8141  1.0148
25101SOL    HW276745   0.126   2.384   5.939 -1.1149  0.1718 -0.9707
25102SOL     OW76746   7.960   5.084   8.686  0.5588  0.2371  0.1998
25102SOL    HW176747   7.975   5.029   8.763 -1.8150  0.7082  1.0795
25102SOL    HW276748   8.043   5.132   8.675  1.5288 -1.0443  1.4243
25103SOL     OW76749   6.872   1.586   2.862  0.0070  0.0376  0.7032
25103SOL    HW176750   6.958   1.544   2.859  0.1371  0.2422  1.5619
25103SOL    HW276751   6.827   1.545   2.936 -0.3828  0.4131  0.6788
25104SOL     OW76752   3.017   4.030   5.739  0.1593 -0.0154  0.0772
25104SOL    HW176753   2.924   4.011   5.727 -0.1369  1.2320  0.1754
25104SOL    HW276754   3.018   4.101   5.803  1.1061  0.7514 -0.7542
25105SOL     OW76755   0.109   6.223   6.798  0.3559  0.3302  0.7161
25105SOL    HW176756   0.074   6.137   6.822  1.6735 -0.5176 -0.2818
25105SOL    HW276757   0.076   6.239   6.710 -1.7399  1.9243  1.7142
25106SOL     OW76758   3.639   7.741   9.728  0.7335  0.2616 -0.2559
25106SOL    HW176759   3.609   7.819   9.683 -2.9319 -0.3067  0.8314
25106SOL    HW276760   3.665   7.772   9.815 -0.0646  0.3852 -0.0544
25107SOL     OW76761   5.100   5.064   0.928 -0.0784 -0.2053 -0.2286
25107SOL    HW176762   5.102   5.087   0.835  2.5599 -1.2669 -0.5194
25107SOL    HW276763   5.010   5.039   0.945 -1.0910  1.9296 -1.9706
25108SOL     OW76764   4.951   7.307   5.780  0.0223 -0.6487 -0.5080
25108SOL    HW176765   4.959   7.362   5.858 -1.7295  0.2092 -0.8681
25108SOL    HW276766   4.997   7.226   5.802 -0.1285 -0.2914  1.2826
25109SOL     OW76767   6.903   3.908  10.623 -0.2373 -0.0315  0.0604
25109SOL    HW176768   6.982   3.952  10.593 -0.1224 -1.1865 -1.4304
25109SOL    HW276769   6.892   3.834  10.563 -2.2726 -0.0896  0.4278
25110SOL     OW76770   6.753   2.061   6.737 -0.1738 -0.9526  0.0642
25110SOL    HW176771   6.829   2.003   6.731  0.2901 -0.3193 -0.2978
25110SOL    HW276772   6.790   2.146   6.762 -0.9581 -1.0452  1.6973
25111SOL     OW76773   0.346   3.070   4.445 -0.4925 -0.3141 -0.3873
25111SOL    HW176774   0.346   3.028   4.531 -0.3103 -0.6685 -0.5553
25111SOL    HW276775   0.439   3.073   4.421 -0.3709  1.3679  0.1810
25112SOL     OW76776   4.491   3.946   0.430 -0.3529 -0.5369  0.3199
25112SOL    HW176777   4.474   4.028   0.477  1.3814 -0.5384  1.0151
25112SOL    HW276778   4.446   3.879   0.481 -0.4152 -0.2246  0.6817
25113SOL     OW76779   1.047   0.977   7.000  0.3458 -0.1940  0.1118
25113SOL    HW176780   1.081   0.897   6.960  0.9794  0.0100  0.2256
25113SOL    HW276781   1.017   1.030   6.926 -0.3479 -0.6499  0.0543
25114SOL     OW76782   5.210   4.221   5.636  0.4367 -0.1469  0.0015
25114SOL    HW176783   5.170   4.173   5.564  2.3160  3.7923 -4.1791
25114SOL    HW276784   5.298   4.183   5.644  0.8686  0.5277 -1.2034
25115SOL     OW76785   4.493   6.551   9.445  0.1186  0.7709  0.0956
25115SOL    HW176786   4.477   6.466   9.487 -1.1596  0.9683  0.0360
25115SOL    HW276787   4.550   6.530   9.371 -1.0481 -0.2106 -0.5569
25116SOL     OW76788   7.117   3.438   9.724 -0.0189 -0.3701  0.3024
25116SOL    HW176789   7.112   3.408   9.815  1.0307 -0.1422  0.4447
25116SOL    HW276790   7.203   3.408   9.693 -0.8657 -1.5805 -1.0402
25117SOL     OW76791   6.637   3.590  11.309  0.2485 -0.1106  0.0220
25117SOL    HW176792   6.619   3.638  11.228  1.7281 -0.1518 -0.3640
25117SOL    HW276793   6.633   3.657  11.378 -2.6710 -0.3460  0.2180
25118SOL     OW76794   4.381   1.196   1.182  0.3881  0.5480  0.6325
25118SOL    HW176795   4.314   1.189   1.114  0.4721  2.1583  0.3416
25118SOL    HW276796   4.383   1.109   1.223 -0.5631 -0.0711 -0.5665
25119SOL     OW76797   0.649   1.796   1.111 -0.0950  0.9035 -0.1626
25119SOL    HW176798   0.632   1.775   1.203  0.3502  0.4725 -0.1700
25119SOL    HW276799   0.569   1.772   1.065 -0.7754  2.2695  0.2710
25120SOL     OW76800   0.323   1.211   4.317  0.0534  0.8483  0.0375
25120SOL    HW176801   0.355   1.134   4.270  0.5159 -0.0220  1.7087
25120SOL    HW276802   0.269   1.258   4.253  1.1503  0.0511 -1.5208
25121SOL     OW76803   3.231   6.237   4.838 -0.0929  0.2758 -0.0720
25121SOL    HW176804   3.250   6.178   4.911  0.4476  0.0268 -0.4077
25121SOL    HW276805   3.183   6.183   4.775  2.2673 -0.4917 -1.3693
25122SOL     OW76806   5.784   2.814   6.262 -0.4255 -0.5087  0.0570
25122SOL    HW176807   5.718   2.836   6.196 -1.6301 -2.9860  0.3210
25122SOL    HW276808   5.761   2.868   6.338 -1.2998 -0.3493 -0.3098
25123SOL     OW76809   1.075   0.655   3.394  0.0111 -0.1356 -0.4671
25123SOL    HW176810   1.080   0.589   3.325  1.8443 -0.8331  0.2789
25123SOL    HW276811   0.981   0.661   3.414 -0.1938 -3.1391 -0.0362
25124SOL     OW76812   2.945   3.195   0.650  0.2094  0.2509  0.2713
25124SOL    HW176813   2.941   3.100   0.640  0.9133  0.1972  0.4782
25124SOL    HW276814   2.863   3.217   0.695  0.3505 -0.3377  0.8361
25125SOL     OW76815   1.846   6.894   7.787 -0.0030  0.6314  0.6238
25125SOL    HW176816   1.932   6.924   7.818  1.0692 -1.1297 -0.4927
25125SOL    HW276817   1.788   6.909   7.861  1.1212  2.3331  1.2497
25126SOL     OW76818   2.508   3.530   6.487  0.1847 -0.0029 -0.0572
25126SOL    HW176819   2.527   3.506   6.578 -0.9819 -0.4129  0.0985
25126SOL    HW276820   2.496   3.446   6.442 -1.9131  0.1872  0.0392
25127SOL     OW76821   3.801   1.418   5.383 -0.3395  0.5818  0.1487
25127SOL    HW176822   3.711   1.396   5.358 -1.1564  2.4645  1.2065
25127SOL    HW276823   3.850   1.412   5.301 -1.5706  0.2184 -0.5968
25128SOL     OW76824   4.516   1.715   1.082 -0.1380  0.3797  0.1970
25128SOL    HW176825   4.435   1.682   1.043  1.0406 -0.9318 -1.2716
25128SOL    HW276826   4.492   1.801   1.118 -2.1024  0.1400 -0.4084
25129SOL     OW76827   5.262   5.100   3.619  0.2960  0.6041 -0.0274
25129SOL    HW176828   5.347   5.057   3.620 -0.0247 -0.0362  0.2899
25129SOL    HW276829   5.282   5.193   3.634  1.0745  0.7371 -1.7273
25130SOL     OW76830   7.390   3.417  10.574 -0.1505 -0.2904  0.4403
25130SOL    HW176831   7.420   3.452  10.490 -3.4978  0.2016 -0.6969
25130SOL    HW276832   7.382   3.493  10.631  0.5449 -0.4073  0.7076
25131SOL     OW76833   7.330   6.381   3.732 -0.1611  0.0174  0.1327
25131SOL    HW176834   7.287   6.325   3.667  1.4310 -1.5723  0.3499
25131SOL    HW276835   7.275   6.458   3.738 -1.4007 -0.6591 -1.6712
25132SOL     OW76836   1.235   2.561  12.325  0.0831 -0.0337 -0.4763
25132SOL    HW176837   1.323   2.586  12.355 -0.6532  1.0804  0.8982
25132SOL    HW276838   1.232   2.589  12.234  0.4511  1.9716  0.0790
25133SOL     OW76839   1.813   4.589   8.415  0.0313 -0.8460  0.1561
25133SOL    HW176840   1.901   4.623   8.402  0.2195  0.1763  3.2008
25133SOL    HW276841   1.757   4.645   8.362  1.0561 -0.4787 -0.5547
25134SOL     OW76842   4.398   5.632   3.442 -0.1408  0.1369 -0.1874
25134SOL    HW176843   4.479   5.603   3.485 -0.7189  0.1471  0.9382
25134SOL    HW276844   4.426   5.700   3.381  0.4464  2.0238  2.0381
25135SOL     OW76845   1.577   0.332   6.557 -0.3803 -0.5417 -0.6354
25135SOL    HW176846   1.593   0.284   6.638  0.0087  0.1821 -0.2759
25135SOL    HW276847   1.555   0.264   6.493  0.1844 -1.2016 -0.1446
25136SOL     OW76848   2.745   0.569   5.954 -0.3064 -0.7617  0.3286
25136SOL    HW176849   2.731   0.527   6.039  0.8730  0.7050  1.3020
25136SOL    HW276850   2.779   0.656   5.976  2.1518 -1.1228 -1.6340
25137SOL     OW76851   5.175   4.044   2.913  0.1874  0.0418  0.3567
25137SOL    HW176852   5.102   3.984   2.896  0.1533  0.1513  0.1150
25137SOL    HW276853   5.242   4.018   2.850 -0.5238  1.4656 -1.0465
25138SOL     OW76854   6.494   4.428   4.053  0.6849  0.0017  0.4805
25138SOL    HW176855   6.445   4.474   4.121 -0.0036  0.0242 -0.0171
25138SOL    HW276856   6.575   4.478   4.043  0.1781  0.8106  0.3167
25139SOL     OW76857   4.616   6.574   7.656  0.5451 -0.2179  0.4678
25139SOL    HW176858   4.552   6.550   7.723  1.3472 -1.0370  0.9680
25139SOL    HW276859   4.598   6.666   7.637 -0.6501 -0.3784  0.7236
25140SOL     OW76860   0.233   6.155   4.066  0.2552 -0.3483 -0.0850
25140SOL    HW176861   0.281   6.156   3.983 -1.8372 -2.5055 -1.4207
25140SOL    HW276862   0.285   6.098   4.122  0.7611 -0.3137 -0.5023
25141SOL     OW76863   5.105   4.275   0.401  0.1046 -0.1020 -0.1006
25141SOL    HW176864   5.102   4.335   0.327 -1.9900 -1.7631 -1.4576
25141SOL    HW276865   5.193   4.238   0.398 -0.2529 -0.8781 -2.4101
25142SOL     OW76866   2.173   6.058   0.716 -0.1726  0.1063 -0.5908
25142SOL    HW176867   2.238   6.095   0.655  0.0714 -0.8568 -0.9249
25142SOL    HW276868   2.156   5.970   0.683  1.3708 -1.1733  1.7744
25143SOL     OW76869   4.136   5.913   5.901 -0.1800 -0.1475 -0.3922
25143SOL    HW176870   4.090   5.839   5.863  0.8375 -0.5532 -0.8470
25143SOL    HW276871   4.199   5.940   5.835  0.8646 -0.1726  0.5568
25144SOL     OW76872   5.023   2.240  11.832 -0.0523 -0.4835 -0.1608
25144SOL    HW176873   5.086   2.261  11.902  0.0476 -1.5386  0.0781
25144SOL    HW276874   4.942   2.283  11.859  0.2773  0.0148  0.0557
25145SOL     OW76875   1.519   3.503   0.882  0.2880  0.3915 -0.1748
25145SOL    HW176876   1.613   3.519   0.888  0.2465  0.7703 -0.5016
25145SOL    HW276877   1.502   3.499   0.788  0.1587 -0.7464 -0.1166
25146SOL     OW76878   3.421   3.597   7.240 -0.3026 -0.1428  0.3394
25146SOL    HW176879   3.357   3.647   7.190 -1.0212 -0.1019  1.2661
25146SOL    HW276880   3.444   3.524   7.183  1.3352  1.5759 -1.3440
25147SOL     OW76881   2.814   6.046   3.726  0.4936 -0.3855  0.5661
25147SOL    HW176882   2.796   6.063   3.633 -0.8158 -0.1423  0.8475
25147SOL    HW276883   2.883   5.979   3.725 -0.2470 -1.1733 -0.5966
25148SOL     OW76884   0.403   1.053   2.770 -0.9400 -0.3205  0.0836
25148SOL    HW176885   0.380   1.097   2.852 -1.9721 -1.0645  0.2144
25148SOL    HW276886   0.477   0.998   2.793 -0.5030  0.3194  0.2381
25149SOL     OW76887   4.287   0.846   4.539  0.6663 -0.1411 -0.4917
25149SOL    HW176888   4.244   0.836   4.623  0.7754 -2.0767 -0.6332
25149SOL    HW276889   4.222   0.818   4.475  0.8466  0.5926 -1.0198
25150SOL     OW76890   5.778   2.035   0.133 -0.4764 -0.5858  0.3835
25150SOL    HW176891   5.751   2.123   0.158 -0.5508 -0.6378  0.4873
25150SOL    HW276892   5.697   1.990   0.109 -0.1390  0.5916 -3.6979
25151SOL     OW76893   0.662   4.273   4.395 -0.5202 -0.2935  0.0219
25151SOL    HW176894   0.650   4.190   4.350 -0.8979 -0.9911  1.3333
25151SOL    HW276895   0.755   4.292   4.387 -0.3208 -1.1619  0.2067
25152SOL     OW76896   1.278   7.437   7.219  0.0690  0.2039  0.2275
25152SOL    HW176897   1.222   7.513   7.232 -1.9381 -1.0115 -0.8858
25152SOL    HW276898   1.358   7.473   7.179 -1.5083  1.5707 -1.8987
25153SOL     OW76899   2.608   4.988   5.100  0.0280  0.3514 -0.2632
25153SOL    HW176900   2.595   4.893   5.106  1.6217  0.0563 -0.9063
25153SOL    HW276901   2.670   4.999   5.027  1.0300  1.7488  0.7382
25154SOL     OW76902   0.833   4.158   5.008 -0.0625  0.1607  0.6664
25154SOL    HW176903   0.883   4.183   4.930 -0.1475 -1.1591  0.1628
25154SOL    HW276904   0.864   4.218   5.076 -1.3692  2.6934 -0.7884
25155SOL     OW76905   6.174   3.099   0.921 -0.2623  0.4266  0.0027
25155SOL    HW176906   6.088   3.118   0.958 -0.1341  1.4886 -0.1974
25155SOL    HW276907   6.212   3.186   0.904 -0.5333  0.0386 -3.1436
25156SOL     OW76908   4.979   6.487   8.727  0.4381  0.1386 -0.3136
25156SOL    HW176909   4.980   6.451   8.638  0.1867 -0.6432 -0.0120
25156SOL    HW276910   4.982   6.410   8.784 -0.2576  0.5895  0.3589
25157SOL     OW76911   6.432   5.288   6.024  0.0300  0.0773 -0.1004
25157SOL    HW176912   6.431   5.193   6.010  1.9410 -0.1749  1.0421
25157SOL    HW276913   6.364   5.322   5.967  1.1877 -1.7103 -2.7428
25158SOL     OW76914   6.466   3.264   9.747 -0.2569  0.8049 -0.0175
25158SOL    HW176915   6.378   3.292   9.722 -1.4633 -2.1283  0.5325
25158SOL    HW276916   6.458   3.236   9.838  1.2173  0.3443  0.0072
25159SOL     OW76917   3.164   0.100   8.596  0.2793  0.3452  0.1412
25159SOL    HW176918   3.145   0.106   8.503  1.2287  0.0329 -0.0877
25159SOL    HW276919   3.164   0.006   8.614 -0.1341  0.4124  0.5143
25160SOL     OW76920   1.808   2.739   9.863  0.6811 -0.5544 -0.0705
25160SOL    HW176921   1.868   2.734   9.789  1.0707 -1.3074  0.2907
25160SOL    HW276922   1.806   2.832   9.885 -0.0984 -0.2000 -1.5484
25161SOL     OW76923   3.845   7.537   6.726 -0.2851  0.2989  0.0190
25161SOL    HW176924   3.925   7.485   6.721 -0.8476 -0.5594 -0.4477
25161SOL    HW276925   3.840   7.565   6.817  0.3981  0.1328  0.1147
25162SOL     OW76926   3.885   5.526   7.073 -0.1788  0.3288 -1.1145
25162SOL    HW176927   3.798   5.565   7.064 -0.5791 -0.4198 -0.6243
25162SOL    HW276928   3.921   5.528   6.985 -0.9757  0.0209 -1.4622
25163SOL     OW76929   5.756   3.283   5.452  0.3000  0.0170  0.0776
25163SOL    HW176930   5.721   3.227   5.383  1.2503  0.0524 -0.4461
25163SOL    HW276931   5.708   3.256   5.531 -1.4807  0.6479 -0.7549
25164SOL     OW76932   0.561   7.560   6.984  0.3453 -0.2240  0.3292
25164SOL    HW176933   0.628   7.586   7.047 -0.8993 -1.3183  2.1982
25164SOL    HW276934   0.500   7.506   7.034 -0.7150 -1.1703 -1.8364
25165SOL     OW76935   0.767   5.358   6.609 -0.5665 -0.6209  0.9188
25165SOL    HW176936   0.837   5.293   6.610  0.4270  0.3994  1.4646
25165SOL    HW276937   0.785   5.412   6.686 -1.6296  0.0082  0.7357
25166SOL     OW76938   1.244   7.896  12.214 -0.2005 -0.5294 -0.1565
25166SOL    HW176939   1.319   7.858  12.260  1.1097  2.5221  0.4832
25166SOL    HW276940   1.188   7.930  12.284 -1.5002 -1.5024 -0.6874
25167SOL     OW76941   4.238   3.539   3.686  0.0996 -0.1758 -0.2408
25167SOL    HW176942   4.186   3.525   3.766 -0.7572 -0.8761 -0.9006
25167SOL    HW276943   4.282   3.623   3.701 -0.4333 -0.0522  0.7595
25168SOL     OW76944   1.315   6.356   5.743  0.4046 -0.3536 -0.3117
25168SOL    HW176945   1.255   6.430   5.755  2.0381  1.1825 -1.1415
25168SOL    HW276946   1.312   6.309   5.826  1.7594  2.5629  1.5585
25169SOL     OW76947   6.881   3.507   8.987  0.0434  0.7117  0.2522
25169SOL    HW176948   6.853   3.574   9.049  0.3723 -0.0709  1.2748
25169SOL    HW276949   6.800   3.480   8.943  0.0359  2.4368 -0.8820
25170SOL     OW76950   3.544   1.577   4.898 -0.1373 -0.1520 -0.1515
25170SOL    HW176951   3.481   1.553   4.829  0.2854  0.0397 -0.6154
25170SOL    HW276952   3.586   1.656   4.864  0.6631 -0.5218 -0.0411
25171SOL     OW76953   7.646   5.221   8.171  0.0456 -0.1936 -0.5160
25171SOL    HW176954   7.559   5.213   8.133  1.1530 -0.5037 -3.1791
25171SOL    HW276955   7.677   5.131   8.181  0.0392 -0.0909  0.5089
25172SOL     OW76956   6.549   4.801  11.928  0.5716  0.0291 -0.1282
25172SOL    HW176957   6.513   4.738  11.866  0.2943  0.6736 -0.6327
25172SOL    HW276958   6.638   4.819  11.895  1.0092 -0.8187  0.5621
25173SOL     OW76959   4.397   7.454   7.457 -0.2379 -0.1891  0.2470
25173SOL    HW176960   4.350   7.505   7.391  1.2322  0.2794 -0.4739
25173SOL    HW276961   4.453   7.395   7.407 -0.2346 -0.9284  1.0897
25174SOL     OW76962   0.255   6.479   1.586  0.1050  0.5006  0.7390
25174SOL    HW176963   0.350   6.489   1.590 -0.0133  3.4069 -1.0450
25174SOL    HW276964   0.221   6.544   1.647 -0.7606  0.6425  0.1271
25175SOL     OW76965   1.097   7.480   1.111  0.6205  0.1900  0.4990
25175SOL    HW176966   1.129   7.561   1.072  1.4542  0.7073  2.1599
25175SOL    HW276967   1.140   7.476   1.197 -0.2638 -1.4486  0.9087
25176SOL     OW76968   5.786   5.896   8.798  0.9457  0.3620  0.2710
25176SOL    HW176969   5.746   5.835   8.737 -1.2217  1.7047  0.2702
25176SOL    HW276970   5.760   5.865   8.884 -1.1777  1.8533  0.2356
25177SOL     OW76971   5.795   3.026   2.458 -0.0360  0.3743  0.1651
25177SOL    HW176972   5.883   3.050   2.486 -0.1963  1.1626  0.0014
25177SOL    HW276973   5.768   3.097   2.400 -0.6504 -0.0305 -0.0507
25178SOL     OW76974   4.228   1.786   7.037 -0.0857  0.1460 -0.3496
25178SOL    HW176975   4.137   1.816   7.046  0.2300  0.7578  0.9257
25178SOL    HW276976   4.220   1.696   7.003 -1.1932 -0.1139  0.5510
25179SOL     OW76977   1.321   7.820  11.601  0.2514  0.1887  0.0676
25179SOL    HW176978   1.354   7.837  11.512  1.9822 -1.0055  0.4368
25179SOL    HW276979   1.365   7.884  11.655 -1.1909  1.2527  0.0463
25180SOL     OW76980   3.379   5.186   1.350  0.5054  0.4917  0.3723
25180SOL    HW176981   3.432   5.107   1.365 -1.4240 -0.9363 -0.0073
25180SOL    HW276982   3.370   5.225   1.437  2.3824  0.9598  0.4136
25181SOL     OW76983   3.537   4.860   6.750 -0.0919  0.0745 -0.8768
25181SOL    HW176984   3.524   4.781   6.801  1.0765 -0.2201 -1.0195
25181SOL    HW276985   3.551   4.929   6.815  2.5018 -0.4923 -0.7547
25182SOL     OW76986   0.072   0.750   5.731 -0.4637  0.0419 -0.7527
25182SOL    HW176987   0.108   0.663   5.714 -0.4174  0.0420 -0.6551
25182SOL    HW276988   0.077   0.760   5.826  0.8590  0.7326 -0.8747
25183SOL     OW76989   2.552   0.939   0.951  0.6523  0.2040 -0.1436
25183SOL    HW176990   2.587   0.995   0.882  1.1927 -0.4524 -0.4194
25183SOL    HW276991   2.472   0.983   0.981  3.0424  3.3115  2.4652
25184SOL     OW76992   2.585   2.667   2.604  0.5459  0.2039  0.6060
25184SOL    HW176993   2.521   2.726   2.563  1.0749 -0.2795 -0.9793
25184SOL    HW276994   2.566   2.581   2.565 -0.2263 -0.7385  2.8886
25185SOL     OW76995   5.955   4.243   6.430  0.0562 -0.2228 -0.3663
25185SOL    HW176996   6.014   4.230   6.503  0.4838 -2.1182 -0.9702
25185SOL    HW276997   6.011   4.268   6.357  0.1659 -1.8273 -0.8896
25186SOL     OW76998   0.222   4.005   7.735 -0.1720 -0.3876  0.4831
25186SOL    HW176999   0.127   3.996   7.744 -0.0215 -0.9405  1.6999
25186SOL    HW277000   0.234   4.090   7.692 -1.2515 -0.9700 -1.0557
25187SOL     OW77001   4.586   0.842   9.487  0.3270  0.1416  0.5714
25187SOL    HW177002   4.651   0.827   9.556  0.5092 -0.7130  0.2260
25187SOL    HW277003   4.588   0.936   9.472 -0.4996  0.5251  2.4999
25188SOL     OW77004   0.131   5.743   4.004  0.4510  0.2896 -0.9145
25188SOL    HW177005   0.188   5.667   3.993 -0.5434 -0.3923 -1.4848
25188SOL    HW277006   0.088   5.754   3.919 -0.1076  0.9211 -0.5628
25189SOL     OW77007   1.153   4.177   9.883  0.5422  0.2859  0.5021
25189SOL    HW177008   1.086   4.204   9.820  1.4403 -1.0491 -1.1260
25189SOL    HW277009   1.108   4.175   9.967 -1.6669 -1.2418 -0.6261
25190SOL     OW77010   0.751   1.468   7.136 -0.4024  0.5585  0.6929
25190SOL    HW177011   0.695   1.521   7.194  0.0857  1.2508  0.5399
25190SOL    HW277012   0.773   1.391   7.188 -0.1738  1.0567  1.3508
25191SOL     OW77013   4.800   7.181   8.223  0.3484 -0.1763  0.2792
25191SOL    HW177014   4.847   7.260   8.196  0.0572 -0.1059 -0.0150
25191SOL    HW277015   4.851   7.109   8.186 -0.5509 -0.0561 -1.2653
25192SOL     OW77016   6.513   3.675   3.720 -0.2037 -0.2260  0.1170
25192SOL    HW177017   6.497   3.741   3.653 -1.6907  0.5540  1.1821
25192SOL    HW277018   6.512   3.591   3.673  0.7224  0.4205 -1.0942
25193SOL     OW77019   5.004   4.325   6.835  0.2498 -0.3996 -0.0912
25193SOL    HW177020   5.012   4.250   6.776  1.0846  0.0310 -0.5533
25193SOL    HW277021   4.938   4.299   6.899  0.8173 -1.6768  0.0020
25194SOL     OW77022   2.280   4.627   4.414  0.5356 -0.0123 -0.1728
25194SOL    HW177023   2.319   4.627   4.501  0.0007 -0.8064  0.0728
25194SOL    HW277024   2.309   4.546   4.374 -2.8129 -1.9780  0.9476
25195SOL     OW77025   3.563   4.821   1.769  0.0511 -0.6147  0.1173
25195SOL    HW177026   3.604   4.882   1.708  0.4847 -0.4977  0.5199
25195SOL    HW277027   3.493   4.780   1.718  0.2037 -0.2902 -0.3630
25196SOL     OW77028   6.905   4.631   9.163 -0.5962  0.5502  0.2856
25196SOL    HW177029   6.881   4.680   9.084  1.2731  2.3527  0.7463
25196SOL    HW277030   7.000   4.621   9.158 -0.6247 -0.7194  1.5434
25197SOL     OW77031   2.023   6.499  10.126  0.3102 -0.1286 -0.0228
25197SOL    HW177032   2.003   6.569  10.064  0.1896  0.4197  0.6167
25197SOL    HW277033   1.966   6.518  10.201 -1.2245 -2.0602 -0.6129
25198SOL     OW77034   5.442   3.413  11.287 -0.2633 -0.1873  0.3430
25198SOL    HW177035   5.470   3.505  11.285  1.1489 -0.6031 -0.4256
25198SOL    HW277036   5.348   3.416  11.271 -0.2578  1.1435  0.4828
25199SOL     OW77037   1.865   4.967   9.465 -0.1007 -0.0906 -0.1676
25199SOL    HW177038   1.860   4.964   9.561 -2.2728  0.8860 -0.1932
25199SOL    HW277039   1.925   5.039   9.447  2.6480 -2.0680  0.3681
25200SOL     OW77040   0.687   2.834   7.010  0.5314  0.0456  0.4080
25200SOL    HW177041   0.771   2.857   7.049  1.3168 -0.0307 -1.2014
25200SOL    HW277042   0.688   2.874   6.923 -0.3051 -1.5194 -0.3689
25201SOL     OW77043   2.138   5.237  11.334  0.2016 -0.4643 -0.2961
25201SOL    HW177044   2.046   5.254  11.355  0.5879  0.4501  0.7964
25201SOL    HW277045   2.140   5.145  11.308 -1.2685 -0.1091 -1.9386
25202SOL     OW77046   2.493   1.808   9.512  0.3225 -0.2660  0.0457
25202SOL    HW177047   2.568   1.820   9.454  1.9660 -1.8457  1.6969
25202SOL    HW277048   2.532   1.781   9.595 -2.0364  0.1447  1.3624
25203SOL     OW77049   4.945   6.526   0.857 -0.2083 -0.0380  0.1965
25203SOL    HW177050   4.988   6.479   0.785 -0.3277 -0.4012  0.3609
25203SOL    HW277051   5.004   6.598   0.877  0.0702 -0.2257  0.0647
25204SOL     OW77052   4.653   7.308   6.679 -0.0074 -0.4049  0.0881
25204SOL    HW177053   4.599   7.231   6.660  0.0004  0.3222 -3.5724
25204SOL    HW277054   4.590   7.377   6.700 -0.3789 -0.3450 -1.1140
25205SOL     OW77055   7.011   6.504   8.544 -0.5361  0.0088  0.0517
25205SOL    HW177056   6.983   6.581   8.495  0.5726  0.2757 -0.1886
25205SOL    HW277057   6.933   6.476   8.592 -1.3695  0.3624 -1.0553
25206SOL     OW77058   6.862   3.545   5.710 -0.5625 -0.3843 -0.1359
25206SOL    HW177059   6.879   3.452   5.702 -1.6054 -0.4151 -2.5851
25206SOL    HW277060   6.948   3.586   5.699 -0.2748 -1.0027 -0.2136
25207SOL     OW77061   0.565   2.972   5.191  0.0124 -0.4563 -0.2401
25207SOL    HW177062   0.477   2.960   5.225 -0.6565  0.6963 -1.4407
25207SOL    HW277063   0.582   2.895   5.138 -1.0192  0.1142 -1.4480
25208SOL     OW77064   2.150   4.147   2.166 -0.0309  0.2103 -0.4379
25208SOL    HW177065   2.142   4.138   2.071 -1.3247 -2.4606 -0.1683
25208SOL    HW277066   2.244   4.157   2.181  0.2647  0.0061 -1.9589
25209SOL     OW77067   3.051   5.386   7.813  0.4697  0.2294 -0.1058
25209SOL    HW177068   3.065   5.315   7.750  0.2421  0.1069 -0.0169
25209SOL    HW277069   2.963   5.371   7.847  0.4865  0.4575  0.0367
25210SOL     OW77070   0.518   1.542   3.764 -0.8128  0.2885  0.2691
25210SOL    HW177071   0.509   1.506   3.853 -1.0562 -0.4000 -0.0225
25210SOL    HW277072   0.438   1.514   3.719 -1.4122  1.9162  0.2543
25211SOL     OW77073   4.343   5.300   7.896  0.0290 -0.5578 -0.6788
25211SOL    HW177074   4.367   5.213   7.926  0.3574 -0.6577 -1.2208
25211SOL    HW277075   4.419   5.330   7.846 -0.6479 -0.5490 -1.7290
25212SOL     OW77076   2.143   1.758  10.892 -0.1021 -0.1787 -0.0433
25212SOL    HW177077   2.140   1.797  10.980  1.2483  0.6195 -0.3179
25212SOL    HW277078   2.100   1.823  10.836  0.5961  0.1395 -0.2269
25213SOL     OW77079   0.826   5.457   9.813 -0.0041  0.5427 -0.2515
25213SOL    HW177080   0.821   5.476   9.719 -2.2888  0.1492 -0.2766
25213SOL    HW277081   0.827   5.543   9.855  0.4280  0.7163 -0.6048
25214SOL     OW77082   0.124   3.331   9.644 -0.4944 -0.8476  0.5608
25214SOL    HW177083   0.172   3.249   9.657 -0.6062 -1.1635 -0.8626
25214SOL    HW277084   0.079   3.319   9.560  0.8818  1.3201 -0.5471
25215SOL     OW77085   4.155   2.111  11.190 -0.5496 -0.3650 -0.4525
25215SOL    HW177086   4.067   2.142  11.166 -0.7342  0.0350  0.7080
25215SOL    HW277087   4.213   2.182  11.166 -0.8905  0.6362  1.5064
25216SOL     OW77088   6.403   5.825  12.102 -0.6635 -0.3190 -0.2259
25216SOL    HW177089   6.477   5.846  12.045  1.7494 -1.2170  2.3412
25216SOL    HW277090   6.363   5.910  12.121 -0.3771  0.1820 -1.7005
25217SOL     OW77091   6.783   7.283   7.297  0.1050 -0.1090 -0.2872
25217SOL    HW177092   6.856   7.328   7.255 -0.5884  1.0310 -0.3167
25217SOL    HW277093   6.775   7.200   7.250  3.0113 -1.4681  1.3665
25218SOL     OW77094   0.645   5.451   6.384 -0.9590  0.3165  0.5046
25218SOL    HW177095   0.657   5.546   6.385 -0.8455  0.3273 -0.6988
25218SOL    HW277096   0.671   5.423   6.471  0.5730  1.2105  0.3681
25219SOL     OW77097   7.347   1.558  11.879  0.0920  0.1789 -0.0512
25219SOL    HW177098   7.352   1.585  11.971 -2.8148  1.5464 -0.1652
25219SOL    HW277099   7.324   1.638  11.832 -1.2380 -1.0230 -1.5443
25220SOL     OW77100   6.819   5.745   7.576  0.8376 -0.2548  0.8706
25220SOL    HW177101   6.897   5.731   7.522 -0.7685 -1.5038 -1.2746
25220SOL    HW277102   6.804   5.660   7.618  1.5073  0.4374  2.5921
25221SOL     OW77103   0.923   0.683   6.538 -0.3101 -0.1996  0.2764
25221SOL    HW177104   0.961   0.619   6.478  1.6271  1.3041 -0.2035
25221SOL    HW277105   0.983   0.685   6.612  0.1710  1.6079 -0.1031
25222SOL     OW77106   5.109   4.884   7.488 -0.5532  0.2213  0.3135
25222SOL    HW177107   5.168   4.814   7.459 -0.5804  0.4725 -0.3827
25222SOL    HW277108   5.064   4.912   7.408  0.3376  1.8590  0.3411
25223SOL     OW77109   0.580   7.310   0.507 -0.2132  0.2032  0.2034
25223SOL    HW177110   0.515   7.316   0.438  1.2133 -1.1095 -1.3313
25223SOL    HW277111   0.650   7.256   0.470  3.4719  4.2735  0.3577
25224SOL     OW77112   0.380   1.895   3.871  0.5221  0.2531 -0.1970
25224SOL    HW177113   0.312   1.953   3.906  0.2027  0.2265 -0.7538
25224SOL    HW277114   0.372   1.815   3.922  0.0710  0.2198 -0.3115
25225SOL     OW77115   6.255   2.522  10.645 -0.3177 -0.2224 -0.3805
25225SOL    HW177116   6.207   2.560  10.719 -0.7516 -1.7136  0.1505
25225SOL    HW277117   6.205   2.547  10.568 -0.1559  0.9096 -0.1391
25226SOL     OW77118   3.440   5.485  11.316  0.5241  0.2238  0.4165
25226SOL    HW177119   3.506   5.423  11.286 -0.0182 -1.0816  1.8009
25226SOL    HW277120   3.371   5.481  11.250  0.3620 -0.8952  0.6372
25227SOL     OW77121   5.896   4.604   5.483  0.3783  0.1228  0.1941
25227SOL    HW177122   5.865   4.671   5.544  2.4835  0.2164  1.2630
25227SOL    HW277123   5.944   4.542   5.538  1.1725 -0.5566 -1.2049
25228SOL     OW77124   0.737   4.426   4.003 -0.0480 -0.0371 -0.1096
25228SOL    HW177125   0.693   4.452   4.084 -0.7902  0.7882 -0.7575
25228SOL    HW277126   0.821   4.392   4.032 -1.4206 -2.5358  1.2528
25229SOL     OW77127   4.185   5.191   0.584  0.2615  0.0442  0.5192
25229SOL    HW177128   4.192   5.214   0.677 -1.1791 -1.0557  0.9359
25229SOL    HW277129   4.243   5.253   0.540 -1.0221  2.3629  1.8769
25230SOL     OW77130   6.877   4.596   6.159  0.1541 -0.1871  0.2810
25230SOL    HW177131   6.893   4.670   6.218  0.5130  1.5143 -1.7924
25230SOL    HW277132   6.916   4.521   6.203  0.8127  1.0896  1.9812
25231SOL     OW77133   5.753   7.464   4.811  0.1335 -0.2083  0.0502
25231SOL    HW177134   5.684   7.470   4.877  1.0871  0.4425  1.0342
25231SOL    HW277135   5.798   7.549   4.817  0.1076 -0.0577 -1.5967
25232SOL     OW77136   5.708   7.933   9.409 -0.5008 -0.4706 -0.0904
25232SOL    HW177137   5.728   7.889   9.492 -0.5027 -0.3035 -0.0004
25232SOL    HW277138   5.710   7.864   9.344  0.0398 -0.5147 -0.0318
25233SOL     OW77139   7.221   3.287   7.812 -0.6559  0.0925 -0.4493
25233SOL    HW177140   7.236   3.206   7.861  0.6523  1.3396  1.3247
25233SOL    HW277141   7.305   3.308   7.772 -0.9942  0.5729 -0.9347
25234SOL     OW77142   2.499   4.032   4.916  0.2980  0.3287 -0.5322
25234SOL    HW177143   2.484   3.962   4.979 -1.5565  0.3987 -0.8354
25234SOL    HW277144   2.414   4.045   4.874  1.4471  0.2536 -3.0906
25235SOL     OW77145   7.889   3.808   4.552 -0.3055  0.2013 -0.0962
25235SOL    HW177146   7.938   3.764   4.622  2.4864  2.8773 -0.1686
25235SOL    HW277147   7.801   3.819   4.588  0.3938 -0.5855  2.0294
25236SOL     OW77148   3.700   0.009   1.239  0.7114 -0.3126  0.1516
25236SOL    HW177149   3.669   0.002   1.149 -2.2044  0.4713  0.9820
25236SOL    HW277150   3.704   0.103   1.256  0.1119 -0.4508  1.1494
25237SOL     OW77151   2.128   6.794   8.740  0.1540 -0.0630 -0.4269
25237SOL    HW177152   2.184   6.839   8.802  0.1527  0.1126 -0.5529
25237SOL    HW277153   2.138   6.701   8.761  2.2075 -0.2279 -1.8658
25238SOL     OW77154   1.983   3.457  11.887 -0.0317 -0.2052  0.0190
25238SOL    HW177155   2.066   3.481  11.844 -0.5519  0.0032 -0.8866
25238SOL    HW277156   1.919   3.517  11.849 -1.0905 -2.0286 -1.1885
25239SOL     OW77157   0.887   2.672   7.222 -0.1933  0.4447 -0.0501
25239SOL    HW177158   0.895   2.600   7.285  1.3481  0.5442 -0.0948
25239SOL    HW277159   0.889   2.751   7.276 -2.4166  0.4861  0.0462
25240SOL     OW77160   4.114   4.263   2.635 -0.2317  0.4195 -0.0616
25240SOL    HW177161   4.113   4.352   2.671 -1.1630  0.8704 -1.1628
25240SOL    HW277162   4.068   4.270   2.552 -3.0401 -1.6303  1.1320
25241SOL     OW77163   6.227   2.469   3.245  0.1548  0.0053  0.2385
25241SOL    HW177164   6.254   2.539   3.304  0.1369 -0.4657  0.8269
25241SOL    HW277165   6.217   2.393   3.303  0.6145 -0.5937 -0.4558
25242SOL     OW77166   7.738   6.718  10.058 -0.0642  0.2483  0.0706
25242SOL    HW177167   7.676   6.767  10.005 -0.2341  0.6248  0.5988
25242SOL    HW277168   7.721   6.626  10.038  0.8481  0.4062 -1.5965
25243SOL     OW77169   3.113   7.227   7.036 -0.4157  0.3480  0.2003
25243SOL    HW177170   3.104   7.194   6.947  1.4278  1.0985 -0.3047
25243SOL    HW277171   3.201   7.204   7.063 -1.0984 -0.3077  2.0610
25244SOL     OW77172   3.991   5.007  12.120  0.1716  0.7133 -0.5185
25244SOL    HW177173   3.906   4.970  12.097  0.0983 -1.1306  2.2015
25244SOL    HW277174   3.973   5.060  12.198  1.3719  1.0888 -0.4815
25245SOL     OW77175   1.740   0.628   1.690  0.2800  0.0220  0.1157
25245SOL    HW177176   1.784   0.654   1.608  0.6701  1.7709  0.8301
25245SOL    HW277177   1.805   0.645   1.758 -0.5807  0.0830  0.9359
25246SOL     OW77178   1.862   4.106   1.066 -0.4419 -0.6063  0.4927
25246SOL    HW177179   1.895   4.168   1.132 -0.8151  0.0049  0.1135
25246SOL    HW277180   1.801   4.051   1.115 -1.6027  0.5765  0.4524
25247SOL     OW77181   5.486   4.900  11.775 -0.1876  0.1262  0.2589
25247SOL    HW177182   5.428   4.965  11.737 -2.1146 -1.7679 -0.2425
25247SOL    HW277183   5.452   4.885  11.863  0.7736  0.4099  0.6920
25248SOL     OW77184   5.567   2.705  10.864 -0.0202 -0.5471 -0.1752
25248SOL    HW177185   5.548   2.792  10.829 -2.6396 -1.1245 -0.3909
25248SOL    HW277186   5.579   2.719  10.958  1.1014  0.2083 -0.4105
25249SOL     OW77187   3.991   5.481   5.560 -0.5847  0.1874  0.3419
25249SOL    HW177188   4.076   5.470   5.602  0.3145 -0.2507 -1.4768
25249SOL    HW277189   3.998   5.565   5.515 -0.9296 -0.0640 -0.1897
25250SOL     OW77190   2.847   7.652   2.264  0.1527  0.5484  0.0869
25250SOL    HW177191   2.927   7.698   2.238 -0.0435  0.6903 -0.2710
25250SOL    HW277192   2.813   7.613   2.183 -0.1777  0.5499  0.2209
25251SOL     OW77193   7.856   3.724   3.673  0.1608 -0.2321  0.0901
25251SOL    HW177194   7.802   3.770   3.737  1.0064  0.4243  0.3469
25251SOL    HW277195   7.916   3.791   3.640  1.8427 -1.2619  0.9283
25252SOL     OW77196   3.901   3.478   2.050  0.0882  0.3981 -0.2722
25252SOL    HW177197   3.996   3.485   2.060  0.0042 -0.2972  1.1929
25252SOL    HW277198   3.877   3.401   2.101 -1.3827  1.0721  0.1047
25253SOL     OW77199   3.424   4.512   0.816 -0.7467 -0.5805 -0.1740
25253SOL    HW177200   3.490   4.540   0.878  0.1582 -2.9386  0.0176
25253SOL    HW277201   3.470   4.507   0.732 -0.7939 -1.6273 -0.1568
25254SOL     OW77202   4.517   4.934   8.127 -0.1139 -0.3359  0.2912
25254SOL    HW177203   4.593   4.902   8.175  0.3554  2.2436  1.4440
25254SOL    HW277204   4.441   4.898   8.174  0.3265 -1.9208 -0.1383
25255SOL     OW77205   1.219   2.404   0.686  0.3549  0.5037  0.5552
25255SOL    HW177206   1.297   2.385   0.738 -0.4618  2.0221  2.4714
25255SOL    HW277207   1.252   2.446   0.607  1.5117  0.1466  0.8252
25256SOL     OW77208   2.156   5.918  11.405 -0.4764  0.0918  0.2787
25256SOL    HW177209   2.135   6.008  11.381  2.4677  0.6878 -0.4974
25256SOL    HW277210   2.124   5.866  11.331 -0.6800  0.7216 -0.0908
25257SOL     OW77211   2.468   1.434   7.110 -0.4058  0.0528 -0.5650
25257SOL    HW177212   2.538   1.375   7.138  0.1020  0.9931  0.1988
25257SOL    HW277213   2.452   1.410   7.019  0.4979 -0.5732 -0.5744
25258SOL     OW77214   2.507   0.862  10.384  0.3212  0.3870  0.5222
25258SOL    HW177215   2.532   0.913  10.307  0.9234  1.6422  1.5227
25258SOL    HW277216   2.488   0.927  10.451 -1.7507 -0.6287  1.0129
25259SOL     OW77217   5.450   6.748   3.958  0.4157 -0.2234  0.2123
25259SOL    HW177218   5.376   6.688   3.956  1.2065 -1.1932 -0.7195
25259SOL    HW277219   5.424   6.820   3.901 -0.5959  0.4534  1.4550
25260SOL     OW77220   6.396   5.405   2.855 -0.0800  0.1032 -0.0530
25260SOL    HW177221   6.364   5.450   2.777  0.6382 -1.4946 -1.3420
25260SOL    HW277222   6.491   5.419   2.853  0.0552 -0.7164 -0.0141
25261SOL     OW77223   6.846   5.013   0.765  0.1306 -0.4042  0.1910
25261SOL    HW177224   6.808   5.082   0.819  0.5389  0.3694 -0.4860
25261SOL    HW277225   6.878   5.059   0.687 -0.9230 -1.5544 -0.9670
25262SOL     OW77226   0.937   0.734  10.566  0.4591 -0.2547 -0.1229
25262SOL    HW177227   0.891   0.818  10.571  0.2068 -0.2752 -1.6623
25262SOL    HW277228   1.003   0.747  10.498  1.7214 -0.7206  0.9646
25263SOL     OW77229   5.802   1.051   8.839  0.4826  0.2923 -0.0417
25263SOL    HW177230   5.883   1.022   8.798  1.4952  2.1543  0.5495
25263SOL    HW277231   5.812   1.027   8.931 -0.8436 -1.8736 -0.3750
25264SOL     OW77232   7.241   1.175  10.589  0.6029  0.5286  0.1190
25264SOL    HW177233   7.293   1.131  10.656 -1.2177 -0.8388  0.7037
25264SOL    HW277234   7.190   1.105  10.549 -1.8511  1.9681  0.5570
25265SOL     OW77235   3.950   6.350  10.589 -0.1409  0.5781  0.1905
25265SOL    HW177236   3.899   6.424  10.623 -1.3369  0.7955 -1.8877
25265SOL    HW277237   3.988   6.383  10.508 -1.5084 -1.3274 -1.3124
25266SOL     OW77238   2.895   3.270   0.955  0.1169  0.0276  0.0793
25266SOL    HW177239   2.862   3.184   0.930  0.6236 -0.1658  0.0767
25266SOL    HW277240   2.982   3.275   0.915  0.2038  0.4265  0.3170
25267SOL     OW77241   4.605   4.968   3.599 -0.5236  0.7721  0.4542
25267SOL    HW177242   4.593   4.976   3.693 -2.4228  1.3851  0.2180
25267SOL    HW277243   4.525   4.924   3.569  0.7955 -0.9488 -0.6913
25268SOL     OW77244   5.494   7.338   2.856  0.2127 -0.4356 -0.1947
25268SOL    HW177245   5.577   7.377   2.882 -0.3382 -0.6405  1.9917
25268SOL    HW277246   5.430   7.408   2.867 -0.2157 -0.8798  0.1779
25269SOL     OW77247   1.755   0.483  10.579  0.5901  0.2994  0.2005
25269SOL    HW177248   1.780   0.474  10.487  2.9259 -0.0187  0.7924
25269SOL    HW277249   1.837   0.468  10.627 -0.8118 -0.8948  2.3896
25270SOL     OW77250   5.395   0.909  11.320  0.3503 -0.0683 -0.3124
25270SOL    HW177251   5.307   0.949  11.323 -0.3691 -1.1066 -3.5644
25270SOL    HW277252   5.381   0.824  11.279  2.9261 -0.1340 -1.2059
25271SOL     OW77253   6.661   5.827   3.306 -0.2997  0.0131 -0.3018
25271SOL    HW177254   6.628   5.762   3.243 -0.5838 -0.9301  0.7735
25271SOL    HW277255   6.589   5.839   3.367 -0.0539  0.9798 -0.1905
25272SOL     OW77256   7.442   3.856   2.621 -0.0220 -0.4588 -0.6415
25272SOL    HW177257   7.459   3.814   2.705 -0.0719  0.3005 -0.2349
25272SOL    HW277258   7.397   3.790   2.569 -1.3135 -0.4716  0.4432
25273SOL     OW77259   5.070   2.011   6.243 -0.2867  0.0204 -0.1965
25273SOL    HW177260   5.048   1.981   6.331  0.1294 -0.0368 -0.1078
25273SOL    HW277261   5.133   1.947   6.211 -2.4660 -1.5585 -1.6242
25274SOL     OW77262   2.379   7.743   6.594 -0.5000 -0.2410 -0.4645
25274SOL    HW177263   2.314   7.691   6.642 -0.8363  2.6544  2.5561
25274SOL    HW277264   2.455   7.746   6.652  0.7783 -0.0485 -2.0706
25275SOL     OW77265   7.600   6.166   6.423 -0.2532 -0.5975 -0.5291
25275SOL    HW177266   7.622   6.251   6.461  2.2500 -1.9354  1.2684
25275SOL    HW277267   7.615   6.177   6.329  2.1675  0.4103 -0.1046
25276SOL     OW77268   6.420   5.003   5.966  0.8116 -0.5953  0.0133
25276SOL    HW177269   6.475   4.956   5.903  0.2477  0.1850 -1.0864
25276SOL    HW277270   6.457   4.980   6.051  3.5156  0.6837 -0.7014
25277SOL     OW77271   0.610   3.043   9.481 -0.1394  0.4170  0.6421
25277SOL    HW177272   0.577   3.094   9.555  0.8433  1.3301  0.4697
25277SOL    HW277273   0.689   3.000   9.515  0.4989  1.0995  0.0444
25278SOL     OW77274   2.095   5.559  10.002  0.2121  0.5097  0.5024
25278SOL    HW177275   2.124   5.639   9.958 -0.7592  1.1886  1.0468
25278SOL    HW277276   2.002   5.574  10.021 -0.0468 -0.8356  0.4333
25279SOL     OW77277   2.718   1.108  11.114  0.5640 -0.7594  0.7598
25279SOL    HW177278   2.772   1.173  11.068 -0.1367  0.7746  2.0056
25279SOL    HW277279   2.628   1.133  11.095  0.2762 -1.3536  1.2907
25280SOL     OW77280   1.742   3.446   7.678  0.2479 -0.1502  0.2355
25280SOL    HW177281   1.676   3.409   7.619 -0.8763  0.8434  0.8152
25280SOL    HW277282   1.703   3.437   7.765  0.0262  2.1418  0.4232
25281SOL     OW77283   1.693   0.379   0.025  0.1942  0.2598 -0.2613
25281SOL    HW177284   1.622   0.327   0.062  0.0702 -0.1812 -1.0838
25281SOL    HW277285   1.661   0.469   0.026  0.1772  0.2517  0.6321
25282SOL     OW77286   6.422   0.622  11.658 -0.2611  0.1972  0.2005
25282SOL    HW177287   6.379   0.694  11.613 -1.6514 -0.8083 -0.1654
25282SOL    HW277288   6.417   0.549  11.595  0.4250 -0.4174  0.8475
25283SOL     OW77289   6.179   2.279   5.555  0.3525  0.7946 -0.2334
25283SOL    HW177290   6.130   2.254   5.477 -0.2295  0.1693  0.3204
25283SOL    HW277291   6.154   2.370   5.571 -2.0098 -0.0058  1.0180
25284SOL     OW77292   0.051   3.895   4.323 -0.5397  0.5144 -0.4634
25284SOL    HW177293  -0.022   3.955   4.307 -1.0175 -0.3611 -1.7552
25284SOL    HW277294   0.029   3.853   4.407 -1.1877  0.7329 -0.5187
25285SOL     OW77295   1.309   7.757   6.626 -0.0253 -0.2800 -0.3118
25285SOL    HW177296   1.261   7.818   6.683 -0.9120 -0.2451 -1.0826
25285SOL    HW277297   1.269   7.672   6.644 -1.4999 -0.0172 -2.1008
25286SOL     OW77298   1.018   3.655   9.722 -0.3157 -0.2314  0.3157
25286SOL    HW177299   1.093   3.715   9.724  0.1323 -0.7574 -0.0969
25286SOL    HW277300   0.944   3.708   9.750 -0.1350  0.8025 -1.0608
25287SOL     OW77301   0.831   0.368   9.852 -0.0111 -0.0984 -0.1299
25287SOL    HW177302   0.740   0.397   9.852 -0.4619 -1.4250  0.5109
25287SOL    HW277303   0.835   0.303   9.923  0.8727 -1.7071 -1.5809
25288SOL     OW77304   5.657   7.571   9.823  0.6566 -0.7258  0.2109
25288SOL    HW177305   5.740   7.532   9.853  0.7902  0.0181  0.8385
25288SOL    HW277306   5.655   7.657   9.865  0.1103 -0.2733 -0.7363
25289SOL     OW77307   7.101   5.481   8.989 -0.1943  0.5650  0.5077
25289SOL    HW177308   7.058   5.515   9.067 -1.2521 -2.1423  1.2189
25289SOL    HW277309   7.028   5.455   8.932  0.5641  0.1661 -0.2992
25290SOL     OW77310   4.663   2.658   7.431  0.4942  0.0108 -0.0175
25290SOL    HW177311   4.758   2.668   7.422  0.7447 -1.4781  0.7246
25290SOL    HW277312   4.627   2.738   7.393  1.9555 -0.2195 -2.0497
25291SOL     OW77313   0.334   5.477   4.362  0.2307  0.1113  0.6176
25291SOL    HW177314   0.259   5.492   4.304  0.2139  0.9785  0.8406
25291SOL    HW277315   0.396   5.546   4.338  0.5572 -0.0175  1.0829
25292SOL     OW77316   7.322   4.090   2.078 -0.0000  0.1452 -0.3783
25292SOL    HW177317   7.256   4.030   2.112 -0.1114  0.5887  0.2096
25292SOL    HW277318   7.405   4.052   2.105 -0.0610  0.1590 -0.1737
25293SOL     OW77319   6.820   4.810   8.097  0.4491 -0.4013 -0.1344
25293SOL    HW177320   6.851   4.759   8.172 -0.9886 -1.3959 -0.1767
25293SOL    HW277321   6.804   4.898   8.132 -0.3925 -0.9040  0.8028
25294SOL     OW77322   0.438   7.106   1.072 -0.0311  0.5745 -0.1187
25294SOL    HW177323   0.376   7.055   1.020 -0.9918  2.1939 -0.6407
25294SOL    HW277324   0.389   7.128   1.152  0.7549 -0.2326  0.5999
25295SOL     OW77325   5.500   5.970  11.424  0.4566 -0.2006  0.4201
25295SOL    HW177326   5.515   6.064  11.409 -0.8260  0.1776  1.3146
25295SOL    HW277327   5.452   5.941  11.346  0.6877 -0.0632  0.2267
25296SOL     OW77328   7.126   6.638   8.314  1.0411  0.3201 -0.6601
25296SOL    HW177329   7.208   6.681   8.288  2.3503 -1.8702 -0.4621
25296SOL    HW277330   7.099   6.590   8.236 -0.6671  1.7830 -1.0391
25297SOL     OW77331   4.781   5.335  10.366  0.1361 -0.6432  0.1744
25297SOL    HW177332   4.838   5.408  10.390  0.4529 -0.9167  0.2665
25297SOL    HW277333   4.744   5.305  10.450  2.2375 -2.4262  0.5567
25298SOL     OW77334   1.625   0.917   2.559  0.1608 -0.7081  0.3369
25298SOL    HW177335   1.541   0.872   2.563 -0.8483  0.8057 -1.9648
25298SOL    HW277336   1.668   0.880   2.482  0.4418  0.3671 -0.0344
25299SOL     OW77337   0.154   4.530   8.858 -0.6823 -0.4578  0.4332
25299SOL    HW177338   0.246   4.516   8.881  0.1120 -2.6935 -3.2454
25299SOL    HW277339   0.107   4.465   8.910 -0.0703 -0.1317  1.4316
25300SOL     OW77340   1.681   0.658  12.335 -0.2388  0.6075  0.3267
25300SOL    HW177341   1.761   0.635  12.289 -0.1983 -0.1309  0.7501
25300SOL    HW277342   1.612   0.609  12.290 -0.0434 -1.0479  1.7253
25301SOL     OW77343   2.626   3.639  10.409  0.0143 -0.3757  0.0038
25301SOL    HW177344   2.704   3.611  10.361  0.2897  0.0087  0.2214
25301SOL    HW277345   2.586   3.705  10.352 -0.1016 -0.5069 -0.0664
25302SOL     OW77346   1.234   0.641   1.981  0.7052 -0.0997  0.0077
25302SOL    HW177347   1.283   0.582   1.925  1.1265 -0.9278  1.2029
25302SOL    HW277348   1.238   0.601   2.068  0.8504  1.5835  0.8250
25303SOL     OW77349   4.526   5.519   3.884  0.1133 -0.1720 -0.7313
25303SOL    HW177350   4.577   5.565   3.817  2.6259 -1.1961  0.3158
25303SOL    HW277351   4.469   5.460   3.835  1.4736 -0.4845 -2.0117
25304SOL     OW77352   1.650   0.853   7.429 -0.5501 -0.2732  0.0618
25304SOL    HW177353   1.581   0.907   7.391 -0.4759 -0.1985  0.0332
25304SOL    HW277354   1.721   0.914   7.449 -0.3457 -0.4047 -0.2577
25305SOL     OW77355   2.425   0.746   4.881  0.1623 -0.1328  0.1360
25305SOL    HW177356   2.485   0.820   4.893  2.2762 -1.6773 -0.4037
25305SOL    HW277357   2.341   0.779   4.913  0.9695  2.5375 -0.2002
25306SOL     OW77358   7.763   7.872   6.790  0.0132 -0.1078  0.0114
25306SOL    HW177359   7.737   7.959   6.821 -0.4468 -0.3211  0.2397
25306SOL    HW277360   7.689   7.816   6.812  0.0242 -0.4317 -0.7436
25307SOL     OW77361   5.131   3.056  10.301 -0.0410 -0.0444  0.0486
25307SOL    HW177362   5.218   3.095  10.298 -0.0852  0.0464 -2.1572
25307SOL    HW277363   5.099   3.064  10.211 -1.5131 -1.8940  0.3502
25308SOL     OW77364   1.375   3.650  10.747  0.1446 -0.5388 -0.0598
25308SOL    HW177365   1.352   3.664  10.655 -0.1471  1.8276  0.3145
25308SOL    HW277366   1.456   3.700  10.759 -0.8773  0.8244  1.4177
25309SOL     OW77367   0.686   0.662   6.320 -0.1115  0.0571 -0.3414
25309SOL    HW177368   0.766   0.713   6.315  0.4030 -0.8350 -1.3931
25309SOL    HW277369   0.660   0.648   6.229 -0.3410 -1.3796 -0.0764
25310SOL     OW77370   4.010   7.710  12.251 -0.1559 -0.0431  0.2432
25310SOL    HW177371   4.039   7.621  12.233  2.0418  0.5881  0.3464
25310SOL    HW277372   3.997   7.712  12.346 -3.0049 -0.9438 -0.0227
25311SOL     OW77373   6.346   6.857   6.761 -0.5380  0.2827  0.3509
25311SOL    HW177374   6.417   6.811   6.806  0.1247  1.0516  0.1234
25311SOL    HW277375   6.386   6.938   6.730 -1.1499  0.0789 -1.0453
25312SOL     OW77376   7.105   2.427   9.679  0.3441 -0.0656  0.1796
25312SOL    HW177377   7.191   2.385   9.680  0.2747 -0.1965  0.6265
25312SOL    HW277378   7.107   2.490   9.750  1.5862  3.0679 -2.3841
25313SOL     OW77379   4.846   2.730   8.100  0.2733 -0.2233  0.7237
25313SOL    HW177380   4.864   2.703   8.010 -1.2800 -1.7673  0.8335
25313SOL    HW277381   4.908   2.802   8.116  0.5357  0.1324 -1.5670
25314SOL     OW77382   0.280   3.465   5.865 -0.3385  0.1195  0.1922
25314SOL    HW177383   0.237   3.410   5.930  1.1036 -0.8833  0.3475
25314SOL    HW277384   0.367   3.481   5.901  0.5650 -0.6066 -1.5373
25315SOL     OW77385   2.560   4.508   0.997 -0.5257 -0.4002  0.4113
25315SOL    HW177386   2.522   4.423   1.019 -2.1103  0.7024  2.2063
25315SOL    HW277387   2.502   4.572   1.039  1.3529  1.5226  0.2289
25316SOL     OW77388   4.261   7.076   9.632 -0.2637 -0.6300  0.0258
25316SOL    HW177389   4.220   7.037   9.555  0.0175 -0.8632 -0.0051
25316SOL    HW277390   4.206   7.153   9.652 -0.4894 -0.7192 -0.2451
25317SOL     OW77391   5.835   6.226   5.827 -0.3454  0.3385  0.3452
25317SOL    HW177392   5.841   6.320   5.810 -2.5054  0.8779  2.0759
25317SOL    HW277393   5.910   6.206   5.882  0.5898  0.8358 -0.7029
25318SOL     OW77394   3.030   6.259   1.739 -0.4983 -0.4538 -0.4040
25318SOL    HW177395   2.963   6.227   1.679 -0.1908  1.7058 -2.0242
25318SOL    HW277396   3.113   6.242   1.693  0.1457 -2.6376  1.3499
25319SOL     OW77397   3.746   1.032  10.714  0.1464 -0.4770 -0.2495
25319SOL    HW177398   3.822   1.057  10.765  0.2508 -1.2931  0.0169
25319SOL    HW277399   3.684   0.996  10.778 -0.0090 -0.8503 -0.6035
25320SOL     OW77400   1.307   5.559  11.419  0.0615  0.2705 -0.3736
25320SOL    HW177401   1.240   5.580  11.354 -0.4888  1.1272  0.4403
25320SOL    HW277402   1.277   5.478  11.460  0.6824 -0.5587 -1.5310
25321SOL     OW77403   3.935   4.106   2.767 -0.0659  0.1599 -0.0172
25321SOL    HW177404   3.963   4.135   2.854  0.0727 -2.0339  0.7363
25321SOL    HW277405   3.996   4.149   2.707 -0.0418  1.5688  0.9522
25322SOL     OW77406   6.169   2.772   3.755 -0.1849  0.2325 -0.7119
25322SOL    HW177407   6.152   2.742   3.844  0.2305  0.0700 -0.6832
25322SOL    HW277408   6.198   2.862   3.765 -0.3136  0.2723 -0.6981
25323SOL     OW77409   2.449   3.877   5.717  0.2791  0.1803 -0.0983
25323SOL    HW177410   2.511   3.838   5.779  0.7582  0.4661 -0.3872
25323SOL    HW277411   2.457   3.823   5.638  0.1340  0.1932 -0.1212
25324SOL     OW77412   1.645   2.697   3.046  0.1893 -0.2386  0.3564
25324SOL    HW177413   1.702   2.761   3.089 -0.2273  0.0865  0.4227
25324SOL    HW277414   1.646   2.621   3.104 -0.0003  0.0234  0.7048
25325SOL     OW77415   0.412   7.829  11.977  0.1746 -0.2591 -0.2848
25325SOL    HW177416   0.358   7.886  11.922 -0.3767 -1.9024 -1.5317
25325SOL    HW277417   0.390   7.740  11.948  2.5469 -1.0425  0.1161
25326SOL     OW77418   0.612   0.648   9.697  0.3562  0.0939  0.2297
25326SOL    HW177419   0.630   0.719   9.759 -1.4923  1.1087 -0.3245
25326SOL    HW277420   0.567   0.581   9.749  2.2461 -0.8198  0.7898
25327SOL     OW77421   1.781   1.202   4.693 -0.4563 -0.4853  0.2946
25327SOL    HW177422   1.869   1.230   4.718 -0.9595  0.8462  0.6433
25327SOL    HW277423   1.792   1.110   4.667  1.0665 -0.2765  0.1086
25328SOL     OW77424   2.245   5.105   5.747 -0.7448  0.2792  0.2793
25328SOL    HW177425   2.160   5.120   5.788  0.5975  3.2909  2.3606
25328SOL    HW277426   2.261   5.184   5.695 -0.0418 -1.1398 -1.8027
25329SOL     OW77427   0.886   1.311   4.464  0.3371 -0.2252 -0.4277
25329SOL    HW177428   0.862   1.403   4.461 -0.3359 -0.4185 -1.2758
25329SOL    HW277429   0.814   1.266   4.420  1.7929 -0.9187 -2.2170
25330SOL     OW77430   3.758   0.821  10.211  0.0905  0.2659 -0.1583
25330SOL    HW177431   3.854   0.819  10.211  0.2215  1.6072 -3.1113
25330SOL    HW277432   3.735   0.913  10.226 -0.6686  0.1848 -0.7492
25331SOL     OW77433   6.352   1.611   4.815  0.1824 -0.3560 -0.4028
25331SOL    HW177434   6.411   1.596   4.888 -1.1314 -0.0038  0.7694
25331SOL    HW277435   6.337   1.525   4.777  0.9616 -0.5258 -0.3254
25332SOL     OW77436   3.561   4.934  10.047  0.3401 -0.0662 -0.1435
25332SOL    HW177437   3.600   5.019  10.029 -0.2957  0.6020  1.4162
25332SOL    HW277438   3.583   4.880   9.971  0.2177  1.6624 -1.4628
25333SOL     OW77439   0.830   5.319   2.479  0.5231 -0.1849 -0.2308
25333SOL    HW177440   0.892   5.247   2.471  1.9309  0.8811  0.6113
25333SOL    HW277441   0.861   5.384   2.415  0.0983  0.2415 -0.0089
25334SOL     OW77442   6.138   6.204   4.390  0.1260 -0.3225  0.6310
25334SOL    HW177443   6.167   6.113   4.401  0.3840 -0.5914 -1.6949
25334SOL    HW277444   6.043   6.200   4.401  0.0603 -1.0152 -0.0760
25335SOL     OW77445   2.025   2.242   9.385 -0.3004  0.2330  0.2136
25335SOL    HW177446   1.944   2.204   9.352  0.7856 -0.6191 -1.6442
25335SOL    HW277447   2.089   2.225   9.316  1.0779  2.3796  0.8489
25336SOL     OW77448   4.417   4.231   0.490 -0.3084 -0.0139 -0.2676
25336SOL    HW177449   4.385   4.218   0.401  0.4237  0.7404 -0.6611
25336SOL    HW277450   4.341   4.261   0.539 -1.0590 -1.8123 -0.2835
25337SOL     OW77451   0.726   7.742   0.004 -0.2404 -0.1398  0.0066
25337SOL    HW177452   0.756   7.831  -0.012 -0.1572 -0.4346 -1.7175
25337SOL    HW277453   0.770   7.690  -0.063 -1.6127 -1.1977 -0.1132
25338SOL     OW77454   0.033   7.822   1.153 -0.1493  0.2074  0.1576
25338SOL    HW177455  -0.016   7.783   1.225 -0.1301 -0.8574 -0.3789
25338SOL    HW277456  -0.014   7.795   1.074 -0.3971  1.6828 -0.2385
25339SOL     OW77457   4.425   5.399   8.623 -0.3279  0.1999 -0.0417
25339SOL    HW177458   4.344   5.442   8.650  0.3233  0.4432  1.6368
25339SOL    HW277459   4.402   5.355   8.542 -2.8435 -1.7719  1.5767
25340SOL     OW77460   3.440   5.597   7.333 -0.3354  0.3458 -0.0260
25340SOL    HW177461   3.453   5.667   7.397  1.4171 -0.5338  0.6367
25340SOL    HW277462   3.525   5.554   7.326 -0.8512 -0.5016 -1.8891
25341SOL     OW77463   5.281   4.511   1.410 -0.8811 -0.3692  0.2261
25341SOL    HW177464   5.273   4.507   1.506 -1.1150 -0.3343  0.2078
25341SOL    HW277465   5.207   4.565   1.382 -0.1832  0.5552  0.1204
25342SOL     OW77466   4.497   3.979   8.753  0.8819  0.3083 -0.4991
25342SOL    HW177467   4.577   3.962   8.803 -0.0729 -0.8120  0.7270
25342SOL    HW277468   4.477   4.071   8.771  1.8520  0.5849 -0.7773
25343SOL     OW77469   7.043   3.759   2.430 -0.3216 -0.2293 -0.7332
25343SOL    HW177470   7.087   3.770   2.346  0.2810 -0.8863 -0.5133
25343SOL    HW277471   7.008   3.670   2.427  0.3244 -0.5249 -0.0185
25344SOL     OW77472   1.828   3.138   6.113 -0.3770 -0.1657  0.3718
25344SOL    HW177473   1.891   3.186   6.167  0.3216 -0.4530 -0.1733
25344SOL    HW277474   1.824   3.051   6.153  0.6184 -0.5777 -0.3941
25345SOL     OW77475   7.316   5.155  11.159  0.3163  0.0498  0.1418
25345SOL    HW177476   7.295   5.066  11.186  1.4571  0.1026  1.3306
25345SOL    HW277477   7.269   5.211  11.221  1.1520  0.2238  0.6304
25346SOL     OW77478   1.217   3.448   9.282 -0.1725  0.5326  0.4763
25346SOL    HW177479   1.307   3.444   9.248 -0.5838 -1.5274 -0.5229
25346SOL    HW277480   1.221   3.515   9.351  2.0474  0.7224  0.2605
25347SOL     OW77481   1.617   7.089   8.854  0.0550 -0.2630  0.2379
25347SOL    HW177482   1.611   7.184   8.846 -1.0928 -0.3302  0.1634
25347SOL    HW277483   1.529   7.061   8.879 -0.2309 -1.5268 -1.9561
25348SOL     OW77484   4.785   4.208   4.424 -0.9793  0.8377  0.8927
25348SOL    HW177485   4.832   4.208   4.508  0.3838  2.4130  0.1910
25348SOL    HW277486   4.851   4.179   4.361 -1.4369  1.4447  0.1257
25349SOL     OW77487   3.761   5.974   1.625 -0.3957  0.2229  0.2991
25349SOL    HW177488   3.847   5.935   1.643 -0.5462 -0.8460 -1.1155
25349SOL    HW277489   3.716   5.971   1.709 -0.1354 -2.0958  0.4285
25350SOL     OW77490   3.727   7.232   9.951  0.2590  0.2201  0.0977
25350SOL    HW177491   3.718   7.327   9.939  1.0744  0.7867  3.0758
25350SOL    HW277492   3.660   7.210  10.016  0.7985 -1.0322  0.2447
25351SOL     OW77493   2.446   0.617  11.285  0.1228 -0.3438  0.4801
25351SOL    HW177494   2.484   0.622  11.373  0.3713  0.1616  0.3454
25351SOL    HW277495   2.456   0.705  11.249  0.6981 -0.7351 -0.3442
25352SOL     OW77496   1.189   5.875   6.326 -1.4351 -0.0451  0.1604
25352SOL    HW177497   1.137   5.915   6.256  0.2298  0.9971 -0.5233
25352SOL    HW277498   1.188   5.940   6.397 -0.3892  0.3618 -0.1835
25353SOL     OW77499   2.676   7.321   0.573 -0.2051 -0.3839  0.1337
25353SOL    HW177500   2.664   7.361   0.659 -0.1834  0.8445 -0.4174
25353SOL    HW277501   2.589   7.292   0.547 -0.4250  0.3238  0.0641
25354SOL     OW77502   1.276   5.961   2.090 -0.6580 -0.0964 -0.0965
25354SOL    HW177503   1.244   5.922   2.009 -1.3451 -0.0561  0.1519
25354SOL    HW277504   1.358   5.916   2.108  0.7407  1.4906 -2.0716
25355SOL     OW77505   6.258   1.422   2.100  0.5051  0.4373  0.3682
25355SOL    HW177506   6.163   1.422   2.092  0.5776  1.7211 -0.8226
25355SOL    HW277507   6.284   1.511   2.078  2.0988 -0.2720 -0.7919
25356SOL     OW77508   4.863   2.799   3.807  0.1905  0.3366  0.2988
25356SOL    HW177509   4.840   2.747   3.730 -0.5716  1.3168 -0.1735
25356SOL    HW277510   4.784   2.798   3.860  0.7619 -0.4493  1.1548
25357SOL     OW77511   3.044   5.769   2.478  0.5225 -0.7516 -0.1314
25357SOL    HW177512   3.095   5.842   2.442  0.0412  1.4798  3.1434
25357SOL    HW277513   2.953   5.790   2.455  0.1884  0.8044  2.2218
25358SOL     OW77514   4.709   3.666   3.841  0.2113  0.1528 -0.2463
25358SOL    HW177515   4.662   3.615   3.907  1.4570 -0.8935 -0.1373
25358SOL    HW277516   4.676   3.632   3.757 -0.1610  0.3203 -0.1686
25359SOL     OW77517   7.730   3.104   0.384  0.1957 -0.0813 -0.4962
25359SOL    HW177518   7.637   3.119   0.403  0.1052 -1.0467 -0.0831
25359SOL    HW277519   7.758   3.181   0.335 -1.0061 -0.1053 -1.2650
25360SOL     OW77520   1.087   4.866   8.045  0.3243 -0.1884 -0.3381
25360SOL    HW177521   0.998   4.891   8.069  0.5234 -0.2176  0.4676
25360SOL    HW277522   1.078   4.778   8.008  0.0834 -0.4030  0.2228
25361SOL     OW77523   5.986   2.567   7.737 -0.5023  0.0112 -0.0439
25361SOL    HW177524   6.007   2.613   7.819 -1.4567  0.8687 -0.2451
25361SOL    HW277525   5.896   2.596   7.717  0.4047  1.4898 -2.4759
25362SOL     OW77526   0.728   4.220   2.301 -0.3450 -0.5966 -0.0274
25362SOL    HW177527   0.686   4.189   2.381  0.5523  0.0661  0.7141
25362SOL    HW277528   0.655   4.234   2.240 -0.9200 -2.5138  0.1424
25363SOL     OW77529   7.211   3.808   5.451 -0.0786 -0.3663 -0.4574
25363SOL    HW177530   7.295   3.829   5.492 -0.0172 -0.8176 -0.3435
25363SOL    HW277531   7.149   3.807   5.523  0.0157 -1.0870 -0.3775
25364SOL     OW77532   0.711   4.502  10.638 -0.1680 -0.8476  0.1745
25364SOL    HW177533   0.774   4.467  10.575  1.0539 -0.5532  1.2012
25364SOL    HW277534   0.730   4.455  10.719 -1.2127 -0.6701  0.5400
25365SOL     OW77535   7.320   3.844   6.081  0.2187 -0.1510  0.4093
25365SOL    HW177536   7.360   3.910   6.024  1.1760 -1.3167 -0.3204
25365SOL    HW277537   7.362   3.762   6.055 -0.9997 -1.0638  1.2435
25366SOL     OW77538   3.756   3.812  10.067  0.4859  0.3498 -0.5282
25366SOL    HW177539   3.741   3.831   9.974  1.9560  1.9235 -0.4952
25366SOL    HW277540   3.740   3.896  10.110  0.9702 -0.0764  0.4982
25367SOL     OW77541   5.231   0.256  11.600  0.0934 -0.0282  0.2546
25367SOL    HW177542   5.302   0.316  11.575  2.8335 -1.3968  3.9419
25367SOL    HW277543   5.177   0.307  11.660 -1.6492  0.7124 -1.8301
25368SOL     OW77544   1.114   3.682  11.613 -0.3828  0.0944 -0.3113
25368SOL    HW177545   1.188   3.622  11.616 -0.9236 -0.5463  0.3921
25368SOL    HW277546   1.147   3.757  11.564  0.4839 -0.5175 -0.6952
25369SOL     OW77547   5.348   3.404   7.240  0.6513 -0.4200 -0.1705
25369SOL    HW177548   5.382   3.477   7.292 -0.5026 -0.1252  0.1852
25369SOL    HW277549   5.332   3.441   7.153  0.4170 -0.3400 -0.0935
25370SOL     OW77550   6.402   2.107  10.951 -0.5694 -0.1616  0.5301
25370SOL    HW177551   6.390   2.156  10.869 -0.0213 -0.2019  0.4275
25370SOL    HW277552   6.356   2.159  11.017 -0.5480  0.1525  0.2989
25371SOL     OW77553   7.790   6.146   3.042  0.0706 -0.6681 -0.1009
25371SOL    HW177554   7.720   6.127   2.980 -0.8641  0.3300  0.6256
25371SOL    HW277555   7.871   6.125   2.994 -0.4791  2.0337 -2.4713
25372SOL     OW77556   5.087   1.528   1.575  0.4871 -0.3728  0.1622
25372SOL    HW177557   5.054   1.502   1.489  1.0510 -0.4576 -0.0324
25372SOL    HW277558   5.021   1.590   1.609 -0.8565 -1.9529  0.5995
25373SOL     OW77559   1.413   3.608  10.476 -0.3926  0.3284  0.2254
25373SOL    HW177560   1.507   3.590  10.478 -0.3450  0.0442 -1.8656
25373SOL    HW277561   1.406   3.691  10.428 -1.2013  0.3826  0.4255
25374SOL     OW77562   1.248   5.405   9.381 -0.3172  0.3024 -0.3593
25374SOL    HW177563   1.165   5.361   9.368  0.3882 -0.8367 -1.0692
25374SOL    HW277564   1.292   5.401   9.297  0.9903 -0.2238  0.3249
25375SOL     OW77565   2.559   7.267   6.737 -0.3749 -0.3344 -0.0814
25375SOL    HW177566   2.604   7.185   6.753 -0.3740 -1.1238 -3.4075
25375SOL    HW277567   2.468   7.250   6.763 -0.4382 -1.5166 -1.0023
25376SOL     OW77568   3.115   3.880  12.056  0.6090 -0.5760  0.1790
25376SOL    HW177569   3.183   3.943  12.032  0.7882  0.0592  2.1483
25376SOL    HW277570   3.103   3.827  11.977  1.8667  0.6441 -0.9021
25377SOL     OW77571   1.439   6.972  10.706  0.1184  0.3323  0.3406
25377SOL    HW177572   1.500   6.909  10.668 -1.1259 -0.6594 -0.0983
25377SOL    HW277573   1.431   6.947  10.798  1.9276  1.7626  0.9412
25378SOL     OW77574   6.602   0.676   4.544 -0.3533 -0.2712 -0.0421
25378SOL    HW177575   6.691   0.713   4.542  0.1707 -1.4549  0.4659
25378SOL    HW277576   6.571   0.684   4.454 -0.0811  0.9674 -0.0433
25379SOL     OW77577   1.963   4.216   5.411  0.1143  0.4211  0.5110
25379SOL    HW177578   1.876   4.215   5.372  0.3524  1.9547 -0.1372
25379SOL    HW277579   1.973   4.129   5.451 -2.0290  0.5136  1.3463
25380SOL     OW77580   6.643   4.871   0.953  0.2617 -0.3998 -0.6613
25380SOL    HW177581   6.692   4.906   0.878  1.9742 -2.4798 -0.6075
25380SOL    HW277582   6.584   4.806   0.914 -0.0405 -0.2937 -0.3767
25381SOL     OW77583   7.680   6.893   9.192  0.1849 -0.0434  0.0336
25381SOL    HW177584   7.705   6.866   9.104  1.5925  0.2157  0.3390
25381SOL    HW277585   7.604   6.949   9.178  1.8613  2.0566 -1.2818
25382SOL     OW77586   5.068   4.418   0.627  0.2182  0.1661 -1.0787
25382SOL    HW177587   4.976   4.411   0.652  1.0550 -2.8698  1.9817
25382SOL    HW277588   5.076   4.364   0.549 -0.7156  1.2379 -1.9365
25383SOL     OW77589   1.612   4.897   5.883  0.3446 -0.2250  0.2244
25383SOL    HW177590   1.625   4.848   5.801 -1.8032  0.9121 -0.8561
25383SOL    HW277591   1.532   4.947   5.869  2.2586  3.4972  1.3385
25384SOL     OW77592   5.279   6.258   3.027  0.2906 -0.1504  0.6822
25384SOL    HW177593   5.258   6.350   3.010  1.6959  0.0054 -0.3440
25384SOL    HW277594   5.254   6.245   3.119  1.3886  1.6725  1.3063
25385SOL     OW77595   5.725   1.583   7.387  0.0416  0.2436 -0.1976
25385SOL    HW177596   5.724   1.524   7.311 -1.7846 -0.9844  0.7111
25385SOL    HW277597   5.805   1.634   7.376 -0.3985  0.4843 -3.2202
25386SOL     OW77598   6.107   7.586   9.018 -0.0622  0.5024 -0.4133
25386SOL    HW177599   6.184   7.576   9.074 -0.8128 -0.4835  0.4575
25386SOL    HW277600   6.143   7.589   8.929  0.9705 -0.0273 -0.0274
25387SOL     OW77601   4.586   0.190  12.296  0.2611  0.5151  0.0458
25387SOL    HW177602   4.566   0.255  12.364 -0.0069 -1.0155  1.4933
25387SOL    HW277603   4.519   0.122  12.308  1.0338 -0.4360 -0.8816
25388SOL     OW77604   0.573   4.340   8.505  0.1715 -0.1961  0.1490
25388SOL    HW177605   0.554   4.432   8.523  1.4805  0.5608 -2.0660
25388SOL    HW277606   0.651   4.321   8.558 -0.5457 -0.3011  1.2075
25389SOL     OW77607   6.925   0.713  10.080 -0.1215 -0.2219  0.6619
25389SOL    HW177608   7.000   0.749  10.033 -1.1945  1.9318  0.4876
25389SOL    HW277609   6.937   0.744  10.170  1.1433 -3.0825  1.5820
25390SOL     OW77610   1.123   1.667  11.836  0.4944 -0.3328 -0.3209
25390SOL    HW177611   1.131   1.582  11.793  0.7909  0.0936 -1.1326
25390SOL    HW277612   1.102   1.728  11.765 -0.6032  0.1342  0.3797
25391SOL     OW77613   0.535   3.022   0.514  0.3576  0.1507 -0.1182
25391SOL    HW177614   0.459   3.012   0.572  0.7828  0.6345  0.5325
25391SOL    HW277615   0.608   2.986   0.564  0.4743 -0.8614 -0.9720
25392SOL     OW77616   5.972   0.999   7.211 -0.6714 -0.1247  0.1343
25392SOL    HW177617   5.937   1.087   7.222 -0.4455  0.1071 -0.9116
25392SOL    HW277618   6.054   1.011   7.163  0.2477 -0.7624  1.4610
25393SOL     OW77619   7.051   5.621   3.603 -0.1567 -0.1610  0.1621
25393SOL    HW177620   6.965   5.583   3.590 -0.7261  1.3115 -0.6617
25393SOL    HW277621   7.060   5.684   3.531  1.6406 -0.3406  0.1865
25394SOL     OW77622   5.906   0.729   5.772  0.7482 -0.0386 -0.5629
25394SOL    HW177623   5.830   0.699   5.822  0.8774 -0.7956 -0.8024
25394SOL    HW277624   5.881   0.716   5.680  0.9781  0.1739 -0.6560
25395SOL     OW77625   0.498   1.596   5.665  0.5506  0.3064  0.3142
25395SOL    HW177626   0.562   1.579   5.734 -1.6309 -0.0249  2.3885
25395SOL    HW277627   0.505   1.690   5.647  1.9007  0.1890  0.1375
25396SOL     OW77628   6.215   3.513   2.409 -0.7261  0.2276 -0.0756
25396SOL    HW177629   6.262   3.509   2.326  0.8100 -0.7165  0.7864
25396SOL    HW277630   6.126   3.484   2.388  0.2155 -2.2631 -1.0193
25397SOL     OW77631   3.020   3.008   0.264  0.1649  0.6331 -0.0306
25397SOL    HW177632   3.102   2.965   0.241 -0.8046 -0.0913 -2.3672
25397SOL    HW277633   2.954   2.938   0.261 -0.7167  1.3923  0.8123
25398SOL     OW77634   4.980   7.925   2.719 -0.3365  0.0783  0.6365
25398SOL    HW177635   4.885   7.919   2.708 -0.2526  1.8916 -2.0677
25398SOL    HW277636   4.999   7.871   2.796 -3.5474 -0.2015  1.3770
25399SOL     OW77637   2.151   4.528   0.975  0.8022 -0.1961  0.4690
25399SOL    HW177638   2.201   4.577   0.911  1.0228 -1.0120 -0.0040
25399SOL    HW277639   2.169   4.436   0.955  0.4402 -0.4799  1.3533
25400SOL     OW77640   5.030   7.484   2.744 -0.1649  0.6737  0.3121
25400SOL    HW177641   4.972   7.515   2.814 -1.4133 -0.8984  0.0419
25400SOL    HW277642   4.970   7.459   2.674  0.9397  0.2283 -0.4926
25401SOL     OW77643   3.667   6.076  11.454 -0.3914 -0.2449  0.1083
25401SOL    HW177644   3.756   6.068  11.419 -0.4554 -0.5480  0.0074
25401SOL    HW277645   3.679   6.075  11.549 -0.2363  0.3513  0.0969
25402SOL     OW77646   7.249   2.330   5.053 -0.3824 -0.6927  0.3488
25402SOL    HW177647   7.227   2.423   5.059 -1.4827 -0.8801 -0.4506
25402SOL    HW277648   7.219   2.292   5.135  1.5705 -0.0994  1.4170
25403SOL     OW77649   0.179   0.400   5.981 -0.1088 -0.9467 -0.3687
25403SOL    HW177650   0.262   0.423   6.024  0.5082 -1.6386 -1.1537
25403SOL    HW277651   0.187   0.435   5.893 -1.9506  1.7228  0.4093
25404SOL     OW77652   0.083   1.772   8.655  0.3075 -0.1737 -0.1080
25404SOL    HW177653   0.073   1.697   8.595  0.2436 -1.1311  1.0653
25404SOL    HW277654  -0.007   1.798   8.675  0.2891 -1.0573  1.0182
25405SOL     OW77655   1.045   4.060   9.079 -0.4700 -0.2746  0.3547
25405SOL    HW177656   1.015   4.037   9.166 -1.5667  0.0239  0.0653
25405SOL    HW277657   0.967   4.090   9.033 -0.5019 -3.0412 -1.6493
25406SOL     OW77658   2.551   5.555   3.032  0.1083  0.1990 -0.0873
25406SOL    HW177659   2.577   5.516   2.949  1.0024 -1.2087  0.8036
25406SOL    HW277660   2.620   5.618   3.051  2.4042 -2.5673  1.6107
25407SOL     OW77661   0.459   6.552   1.919  0.9074  0.5456 -0.0346
25407SOL    HW177662   0.440   6.462   1.893  0.4172  0.9532 -1.1495
25407SOL    HW277663   0.374   6.595   1.917  1.2124  1.1565  0.0208
25408SOL     OW77664   5.523   6.399   4.472  0.3526 -0.4265 -0.6586
25408SOL    HW177665   5.618   6.391   4.481  0.4248 -1.2728 -1.8840
25408SOL    HW277666   5.490   6.312   4.491  0.0290 -0.6894 -2.2973
25409SOL     OW77667   0.266   5.697   5.863  0.1932 -0.1356 -0.2574
25409SOL    HW177668   0.339   5.695   5.924  0.4509  0.9222 -0.5142
25409SOL    HW277669   0.212   5.622   5.889 -0.0064  0.5946  1.6384
25410SOL     OW77670   5.152   1.790   6.079  0.0641 -0.2400 -0.0348
25410SOL    HW177671   5.187   1.705   6.054 -1.1031 -1.0364  0.8755
25410SOL    HW277672   5.093   1.814   6.008 -1.0016 -1.0967  0.5187
25411SOL     OW77673   0.377   7.963  10.909 -0.2225  0.3593  0.0952
25411SOL    HW177674   0.403   7.875  10.935 -0.2975  0.2920 -0.0560
25411SOL    HW277675   0.430   8.021  10.963  0.1955  0.2275 -0.1680
25412SOL     OW77676   0.516   7.001   0.772  0.1689  0.5486 -0.2056
25412SOL    HW177677   0.518   7.059   0.848  2.2384  0.3901 -0.0673
25412SOL    HW277678   0.481   6.919   0.805  1.2156  0.4288  0.6538
25413SOL     OW77679   6.396   4.374   6.328 -0.4902 -0.3263  0.4434
25413SOL    HW177680   6.338   4.436   6.372  0.8260  0.0986  1.6724
25413SOL    HW277681   6.426   4.421   6.250 -0.2011  0.2535  0.8941
25414SOL     OW77682   5.250   5.778   3.047 -0.7500 -0.1187  0.4570
25414SOL    HW177683   5.261   5.698   3.097  0.9695  0.2961  0.8173
25414SOL    HW277684   5.336   5.795   3.009 -1.5457  0.5831 -1.1178
25415SOL     OW77685   1.532   3.680  11.032  0.1944 -0.5590  0.7156
25415SOL    HW177686   1.625   3.685  11.055  0.7104  0.3210 -1.3361
25415SOL    HW277687   1.517   3.587  11.014  0.6244 -0.7338  1.2366
25416SOL     OW77688   7.300   5.154  11.573  0.1538 -0.1036 -0.0290
25416SOL    HW177689   7.213   5.115  11.569  0.8065 -1.6831  0.4073
25416SOL    HW277690   7.313   5.193  11.487 -1.6369  1.7098  0.4412
25417SOL     OW77691   6.281   0.543   3.648  0.6207  0.4209  0.4305
25417SOL    HW177692   6.205   0.519   3.701 -0.3835  2.3965  0.0031
25417SOL    HW277693   6.295   0.468   3.590 -0.9697 -0.0100  0.5676
25418SOL     OW77694   0.005   4.776   0.243  0.2683 -0.5192 -0.4915
25418SOL    HW177695   0.044   4.793   0.328 -0.1442  3.9319 -0.9333
25418SOL    HW277696   0.078   4.778   0.181  0.3071 -1.5317 -0.5002
25419SOL     OW77697   4.061   3.346   6.639  0.2196 -0.3880 -0.0996
25419SOL    HW177698   4.075   3.439   6.622  2.6851 -0.7924 -0.6078
25419SOL    HW277699   3.969   3.341   6.667 -0.5174  1.9144 -1.7811
25420SOL     OW77700   3.650   1.209   3.569  0.9360  0.2258 -0.0455
25420SOL    HW177701   3.654   1.125   3.614 -0.9203 -0.8241 -1.6719
25420SOL    HW277702   3.581   1.257   3.614  0.3688 -0.0878 -0.5597
25421SOL     OW77703   4.169   2.160   9.902 -0.7531  0.2843  0.3208
25421SOL    HW177704   4.249   2.213   9.907  0.3736 -1.1286 -1.4364
25421SOL    HW277705   4.136   2.158   9.992  0.5369  1.8653  0.8698
25422SOL     OW77706   7.526   2.118  10.606  0.3281  0.0906  0.2146
25422SOL    HW177707   7.437   2.152  10.602  0.5383  0.5229 -1.7378
25422SOL    HW277708   7.574   2.181  10.661 -0.5558 -0.1829  1.3265
25423SOL     OW77709   1.055   6.455   3.964  0.1414  0.1370 -0.0302
25423SOL    HW177710   1.023   6.474   4.053  1.7463 -0.5555  0.7294
25423SOL    HW277711   1.020   6.369   3.944  2.1429 -1.0398  1.1782
25424SOL     OW77712   7.819   7.081  11.737  0.5142 -0.7087 -0.2140
25424SOL    HW177713   7.802   7.011  11.800  1.3073  0.1038  0.9571
25424SOL    HW277714   7.862   7.150  11.789 -0.1492  0.6034 -1.3370
25425SOL     OW77715   7.841   4.195   3.689  0.0200  0.2494  0.4763
25425SOL    HW177716   7.905   4.228   3.753 -0.0601 -1.7319  1.6599
25425SOL    HW277717   7.756   4.214   3.730 -0.1142  1.2217 -0.2339
25426SOL     OW77718   4.125   0.723   5.048  0.2793  0.2102  0.1468
25426SOL    HW177719   4.189   0.678   5.103 -0.1052  0.8137  1.0949
25426SOL    HW277720   4.114   0.809   5.088  0.2690  0.8086 -1.0795
25427SOL     OW77721   0.436   2.686   5.570 -0.4324 -0.2749 -0.4255
25427SOL    HW177722   0.527   2.714   5.564 -0.8159  1.2427  0.2932
25427SOL    HW277723   0.430   2.609   5.512  1.3397 -0.5611 -0.2648
25428SOL     OW77724   5.266   7.229   0.064  0.1970  0.3148 -0.3873
25428SOL    HW177725   5.197   7.295   0.075 -1.1057 -0.6796 -2.1168
25428SOL    HW277726   5.298   7.213   0.153 -1.2705  1.3556  0.3727
25429SOL     OW77727   6.792   7.408   3.725 -0.1007  0.3442 -0.1395
25429SOL    HW177728   6.863   7.424   3.788  1.2305  0.4815 -1.6037
25429SOL    HW277729   6.721   7.372   3.778  0.1142  2.5503  1.8041
25430SOL     OW77730   4.975   3.124   4.956  0.3474  0.1980  0.4882
25430SOL    HW177731   5.009   3.130   4.866  0.6780 -0.0818  0.5960
25430SOL    HW277732   4.901   3.184   4.956  0.3047  0.1562  0.0063
25431SOL     OW77733   6.708   6.472   8.627  0.2014 -0.0088 -0.0656
25431SOL    HW177734   6.706   6.565   8.605  3.4039  0.0581 -0.4766
25431SOL    HW277735   6.663   6.429   8.554  1.1082  1.0549 -1.2986
25432SOL     OW77736   2.341   5.379   4.460 -0.0065 -0.3210  0.0138
25432SOL    HW177737   2.304   5.302   4.503 -1.0508 -0.2438 -0.7129
25432SOL    HW277738   2.382   5.345   4.380 -2.3216  0.0692 -1.4249
25433SOL     OW77739   5.505   3.586   7.598  0.6344  0.1501  0.0439
25433SOL    HW177740   5.502   3.659   7.660  1.0214  0.7720 -0.6579
25433SOL    HW277741   5.430   3.601   7.540  1.8917  1.1853 -1.3976
25434SOL     OW77742   3.737   1.465   9.118 -0.0431 -0.1298  0.1187
25434SOL    HW177743   3.800   1.393   9.131 -0.2771 -0.2867  0.3857
25434SOL    HW277744   3.775   1.517   9.047  2.3729  1.9206  2.6620
25435SOL     OW77745   6.628   6.359   8.407 -0.2583 -0.0526 -0.2689
25435SOL    HW177746   6.596   6.268   8.409 -2.9179  0.6825 -2.8797
25435SOL    HW277747   6.655   6.373   8.317  1.6859  1.3487  0.4623
25436SOL     OW77748   1.722   2.076   3.308 -0.4450 -0.0839  0.5591
25436SOL    HW177749   1.738   2.150   3.249 -1.2634  0.1691  0.6514
25436SOL    HW277750   1.681   2.010   3.252 -0.8246 -0.0055  0.7416
25437SOL     OW77751   2.419   3.303   1.859  0.5160 -0.0676  0.1704
25437SOL    HW177752   2.430   3.252   1.940 -0.8307  0.3653  0.6585
25437SOL    HW277753   2.476   3.379   1.870  0.6358 -0.2089  0.5373
25438SOL     OW77754   1.626   5.812   9.406  0.2394  0.2865 -0.2164
25438SOL    HW177755   1.605   5.903   9.388  1.3682  0.5672 -0.1653
25438SOL    HW277756   1.681   5.785   9.333 -0.6399 -0.5692 -0.5862
25439SOL     OW77757   3.023   7.720  11.813 -0.4366  0.1267  0.6432
25439SOL    HW177758   3.077   7.663  11.759  0.8509  0.7393  1.2238
25439SOL    HW277759   3.025   7.681  11.900 -0.4807  0.4479  0.7913
25440SOL     OW77760   1.433   0.094   1.076 -0.0403 -0.1237  0.6681
25440SOL    HW177761   1.345   0.069   1.104 -0.4190  0.6103  0.1748
25440SOL    HW277762   1.442   0.185   1.104  0.3337 -0.0111  0.1947
25441SOL     OW77763   5.348   0.769   9.965  0.0822  0.0481  0.2727
25441SOL    HW177764   5.429   0.744  10.008 -0.8368 -0.7161  1.6336
25441SOL    HW277765   5.298   0.688   9.959 -0.1469  0.2692 -1.6009
25442SOL     OW77766   2.482   7.886   4.104 -0.2664 -0.1424 -0.1516
25442SOL    HW177767   2.415   7.854   4.165 -0.1242 -1.1987 -0.5226
25442SOL    HW277768   2.564   7.850   4.137 -0.1746 -0.6419 -0.8907
25443SOL     OW77769   1.372   5.659   4.002 -0.1626 -0.2716  0.1783
25443SOL    HW177770   1.327   5.635   4.083 -0.2000  0.7317  0.4607
25443SOL    HW277771   1.375   5.577   3.951 -0.2791 -0.8677  1.1144
25444SOL     OW77772   1.588   0.905  12.382 -0.3368 -0.2813  0.2671
25444SOL    HW177773   1.616   0.819  12.350 -1.3203 -0.5720  0.1619
25444SOL    HW277774   1.526   0.936  12.316  0.2004  0.6359  0.1715
25445SOL     OW77775   0.471   6.456   0.901  0.8448 -0.1207 -0.2852
25445SOL    HW177776   0.535   6.480   0.834 -0.9306  1.1432 -1.6267
25445SOL    HW277777   0.393   6.507   0.880 -0.2206 -0.6387  2.0306
25446SOL     OW77778   6.087   4.627   1.295 -0.3074 -0.4287  0.1870
25446SOL    HW177779   6.054   4.635   1.384 -1.0185  0.8631 -0.1635
25446SOL    HW277780   6.017   4.580   1.248 -0.7116  0.4056 -0.0650
25447SOL     OW77781   2.591   5.300   5.717 -0.1669 -0.2204 -0.3241
25447SOL    HW177782   2.634   5.222   5.752  0.7189  0.3051 -0.2078
25447SOL    HW277783   2.613   5.301   5.624 -0.9989 -0.6290 -0.5368
25448SOL     OW77784   4.905   6.483   2.671  0.5762 -0.8469 -0.3012
25448SOL    HW177785   4.955   6.433   2.736  1.5275  0.3952 -0.0417
25448SOL    HW277786   4.826   6.509   2.718  1.0578 -0.3267  0.2351
25449SOL     OW77787   5.445   3.767   6.183  0.1134  0.0603 -0.1704
25449SOL    HW177788   5.492   3.694   6.143 -0.8992 -0.1779 -0.9549
25449SOL    HW277789   5.360   3.768   6.140 -1.0923 -0.2729  2.0874
25450SOL     OW77790   7.187   7.523   3.192  0.2817 -0.2598 -0.2664
25450SOL    HW177791   7.162   7.435   3.166  0.1988 -0.1715 -0.4868
25450SOL    HW277792   7.269   7.539   3.147  0.4170 -0.3141 -0.0380
25451SOL     OW77793   5.723   7.289   5.838  0.6959  0.4090  0.5624
25451SOL    HW177794   5.656   7.289   5.769  1.5141  1.5764 -0.2793
25451SOL    HW277795   5.800   7.250   5.796  0.9660  0.4182  1.0475
25452SOL     OW77796   1.783   1.996   8.012  0.2055 -0.0946  0.4897
25452SOL    HW177797   1.858   1.936   8.021  1.6603  1.6902  0.9446
25452SOL    HW277798   1.757   2.015   8.102 -0.6311 -0.4769  0.3348
25453SOL     OW77799   5.205   1.155  11.583 -0.1377 -0.1504 -0.0444
25453SOL    HW177800   5.263   1.231  11.575  0.0065 -0.2263  0.2805
25453SOL    HW277801   5.212   1.110  11.499  3.6041 -2.5847  1.3171
25454SOL     OW77802   0.331   0.169   1.429 -0.6651 -0.4415 -0.3755
25454SOL    HW177803   0.277   0.126   1.363 -1.3643 -1.0156  0.5545
25454SOL    HW277804   0.284   0.249   1.451  0.1058  0.3087 -1.3255
25455SOL     OW77805   4.131   6.774   3.655 -0.1441 -0.0750  0.2976
25455SOL    HW177806   4.178   6.736   3.580  1.9519 -1.2637  2.1130
25455SOL    HW277807   4.055   6.716   3.666  0.2789 -0.7245 -0.0770
25456SOL     OW77808   2.545   3.543   1.893  0.4334 -0.0573  0.0564
25456SOL    HW177809   2.544   3.608   1.822  0.9577  0.8133  0.8180
25456SOL    HW277810   2.488   3.579   1.960  0.3914 -0.5939  0.3128
25457SOL     OW77811   7.381   6.028  12.262  0.4553  0.0450  0.0766
25457SOL    HW177812   7.331   5.981  12.195 -0.0120  1.2312 -0.4243
25457SOL    HW277813   7.454   5.969  12.282  0.2585 -0.6020 -1.0228
25458SOL     OW77814   7.454   0.802   2.233 -0.0482 -0.2725  0.1863
25458SOL    HW177815   7.361   0.806   2.251  0.1694 -0.5441  1.4256
25458SOL    HW277816   7.471   0.710   2.212  0.1180 -0.4510  1.0553
25459SOL     OW77817   0.391   2.301   3.144 -0.3905 -0.0078 -0.0347
25459SOL    HW177818   0.449   2.277   3.072 -0.4937 -0.2254 -0.0460
25459SOL    HW277819   0.331   2.228   3.152 -2.3852  1.3111 -1.7786
25460SOL     OW77820   5.463   3.606  12.429 -0.3667 -0.3785 -0.1909
25460SOL    HW177821   5.404   3.673  12.463  1.4068  2.0814 -1.6168
25460SOL    HW277822   5.436   3.595  12.338 -0.8182 -1.8922  0.0983
25461SOL     OW77823   2.482   1.450   9.529  0.1471 -0.1215 -0.5132
25461SOL    HW177824   2.559   1.472   9.477  0.2568  1.2194  0.1616
25461SOL    HW277825   2.518   1.425   9.614 -0.1215 -0.3758 -0.4761
25462SOL     OW77826   3.255   0.464   8.007 -0.5090 -0.5620  0.3062
25462SOL    HW177827   3.348   0.452   7.990 -0.4346  1.9522 -1.5510
25462SOL    HW277828   3.241   0.424   8.093  1.5822 -3.6972 -0.6255
25463SOL     OW77829   2.049   5.090   3.871  0.0217  0.2664  0.3510
25463SOL    HW177830   2.061   5.179   3.839 -1.5837  1.6854  3.2329
25463SOL    HW277831   2.058   5.098   3.966 -0.9944 -2.5148  0.7757
25464SOL     OW77832   4.619   3.486   2.802 -0.2018 -0.5870 -0.6018
25464SOL    HW177833   4.529   3.453   2.796 -0.4725  0.3766 -2.6166
25464SOL    HW277834   4.670   3.411   2.830 -1.4565 -1.4746 -0.6028
25465SOL     OW77835   2.231   4.088   5.282  0.5974 -0.1832 -0.2647
25465SOL    HW177836   2.324   4.102   5.298  0.7166 -1.8318  0.7355
25465SOL    HW277837   2.218   4.115   5.191  1.3898  2.8679  0.4090
25466SOL     OW77838   7.749   1.972   4.023 -0.0332  0.6844  0.3116
25466SOL    HW177839   7.805   1.895   4.030 -0.0415  0.6801  0.3308
25466SOL    HW277840   7.803   2.036   3.976  0.0391  0.7273  0.4528
25467SOL     OW77841   1.389   6.311   9.091  0.4210 -0.1310  0.0648
25467SOL    HW177842   1.439   6.344   9.166  0.0156  0.7208 -0.0231
25467SOL    HW277843   1.340   6.387   9.060 -0.6637 -0.8555 -0.0577
25468SOL     OW77844   6.005   4.478  10.813  0.0947  0.3419  0.2207
25468SOL    HW177845   6.049   4.399  10.783 -0.8237 -0.6499  1.3761
25468SOL    HW277846   6.053   4.505  10.891 -0.3876  0.1328  0.6013
25469SOL     OW77847   0.322   3.700   4.882 -0.4393 -0.3085 -0.3890
25469SOL    HW177848   0.399   3.656   4.846  0.3676 -0.0164  0.9289
25469SOL    HW277849   0.348   3.727   4.970 -2.7494 -2.1452  0.9749
25470SOL     OW77850   0.434   0.568   2.232 -0.4237  0.3671 -0.1827
25470SOL    HW177851   0.414   0.654   2.270 -0.6030  0.3839 -0.3117
25470SOL    HW277852   0.381   0.507   2.284 -0.2596  0.3294 -0.0600
25471SOL     OW77853   7.669   2.914   6.545 -0.4742  0.2041 -0.0470
25471SOL    HW177854   7.681   2.949   6.456 -1.1786 -1.6542 -0.9249
25471SOL    HW277855   7.758   2.896   6.575 -0.2457  0.4849 -0.5288
25472SOL     OW77856   2.838   3.303  10.214 -0.4386  0.3883 -0.4502
25472SOL    HW177857   2.833   3.275  10.306 -0.0426  0.1681 -0.4950
25472SOL    HW277858   2.928   3.286  10.189 -0.6040  0.2435 -0.9471
25473SOL     OW77859   0.844   2.634   6.405 -0.2181 -0.2457 -0.2204
25473SOL    HW177860   0.778   2.578   6.362 -0.0787 -0.2415 -0.4384
25473SOL    HW277861   0.927   2.594   6.382 -0.1257 -0.0433 -0.2355
25474SOL     OW77862   7.820   1.702   6.166 -0.1975 -0.0661  0.0649
25474SOL    HW177863   7.846   1.652   6.244 -3.8337 -2.7080 -0.1477
25474SOL    HW277864   7.851   1.649   6.092  0.8545  1.0399 -0.3283
25475SOL     OW77865   1.795   7.678  10.352  0.1852 -0.2255 -0.1988
25475SOL    HW177866   1.861   7.747  10.362 -0.2661  0.6095 -2.4974
25475SOL    HW277867   1.717   7.724  10.321 -0.4869 -1.6067 -0.6034
25476SOL     OW77868   1.531   4.582   6.069  0.5554  0.8479  0.0008
25476SOL    HW177869   1.441   4.594   6.038  0.0383 -0.1087  1.0747
25476SOL    HW277870   1.573   4.667   6.053 -0.5019  1.2885 -0.5884
25477SOL     OW77871   2.840   6.826   2.680 -0.8401 -0.6932  0.1108
25477SOL    HW177872   2.763   6.851   2.629  1.6208 -1.6316 -4.6185
25477SOL    HW277873   2.904   6.895   2.662  0.2831 -1.1948  1.8695
25478SOL     OW77874   2.453   7.021   4.840 -0.2897 -0.8333  0.6816
25478SOL    HW177875   2.496   7.093   4.886 -0.6691 -1.9206  2.8638
25478SOL    HW277876   2.390   7.063   4.782  0.6644  0.6184  0.6452
25479SOL     OW77877   0.427   5.884   7.126  0.0374  0.6662 -0.8873
25479SOL    HW177878   0.516   5.893   7.090 -0.1635 -1.2559 -2.0200
25479SOL    HW277879   0.370   5.913   7.055 -0.2735  1.3075 -0.3819
25480SOL     OW77880   3.251   2.768   8.579 -0.1064 -0.4640  0.2094
25480SOL    HW177881   3.240   2.801   8.668 -1.3082  2.2547 -0.8358
25480SOL    HW277882   3.322   2.819   8.542 -0.0767 -1.0658 -0.6075
25481SOL     OW77883   7.752   5.705   7.996  0.5965 -0.1652 -0.3862
25481SOL    HW177884   7.818   5.640   8.022 -1.1634 -2.1354 -0.5751
25481SOL    HW277885   7.765   5.778   8.057  2.3845 -0.8248  0.1031
25482SOL     OW77886   1.258   4.566   5.352 -0.1200 -0.5577  0.0536
25482SOL    HW177887   1.344   4.606   5.340 -0.6119  0.1058 -1.5192
25482SOL    HW277888   1.211   4.628   5.407 -0.5520  0.6308 -1.5669
25483SOL     OW77889   3.387   5.308   8.197 -0.3795  0.3217 -0.0391
25483SOL    HW177890   3.358   5.353   8.118 -0.9343 -1.3491 -0.8487
25483SOL    HW277891   3.362   5.366   8.269  0.7601  2.1977 -1.0905
25484SOL     OW77892   7.237   5.072  10.680  0.6314  0.1275  0.3195
25484SOL    HW177893   7.252   4.978  10.669  1.9018  0.1376  1.7408
25484SOL    HW277894   7.278   5.112  10.604  1.8931 -0.3456  0.7328
25485SOL     OW77895   5.535   5.912   7.165  0.1894  0.3723 -0.0815
25485SOL    HW177896   5.527   6.003   7.192  0.7036  0.9322 -1.7241
25485SOL    HW277897   5.625   5.904   7.133  0.5480 -1.0483  1.1544
25486SOL     OW77898   5.001   3.295   0.760  0.1354  0.0516  0.3605
25486SOL    HW177899   4.958   3.377   0.736 -1.0663 -0.3639  0.9614
25486SOL    HW277900   4.980   3.235   0.688  1.0091  0.2569 -0.0765
25487SOL     OW77901   1.598   5.400  12.380 -0.8086  0.4745  0.3969
25487SOL    HW177902   1.536   5.395  12.453  0.3112  0.9253  1.4248
25487SOL    HW277903   1.653   5.322  12.390 -0.5375  0.6308  0.1386
25488SOL     OW77904   6.247   4.899   3.459 -0.4193  0.0026 -0.4362
25488SOL    HW177905   6.327   4.881   3.509 -0.0647 -1.7052 -1.5205
25488SOL    HW277906   6.248   4.994   3.446  0.9852  0.1229  0.2934
25489SOL     OW77907   1.489   0.880  10.721 -0.6646 -0.2036 -0.2738
25489SOL    HW177908   1.424   0.903  10.655  1.3470  0.7514 -2.0489
25489SOL    HW277909   1.571   0.919  10.689  0.6340 -0.5990  2.2736
25490SOL     OW77910   6.947   1.399   3.627 -0.0948 -0.7333  0.1865
25490SOL    HW177911   6.974   1.313   3.660 -2.2408 -2.0216 -1.1908
25490SOL    HW277912   6.985   1.461   3.690  2.4136 -2.5666  0.6470
25491SOL     OW77913   0.742   6.295   1.365 -0.2022 -0.0433  0.3644
25491SOL    HW177914   0.756   6.351   1.288  0.4920 -1.8977 -0.9555
25491SOL    HW277915   0.649   6.302   1.383 -0.7596 -0.9035 -1.8333
25492SOL     OW77916   0.542   1.776   2.057  0.3529 -0.0860 -0.3384
25492SOL    HW177917   0.479   1.707   2.079 -0.4111  0.8753  0.5969
25492SOL    HW277918   0.598   1.783   2.134  0.6602  0.0764 -0.5762
25493SOL     OW77919   3.717   1.641   7.354  0.1273  0.3121  0.4010
25493SOL    HW177920   3.632   1.681   7.371  0.1283  0.5814 -0.2136
25493SOL    HW277921   3.777   1.687   7.413 -0.4786 -1.3374  2.4579
25494SOL     OW77922   0.354   1.932  11.043  0.4963  0.2532 -0.1863
25494SOL    HW177923   0.397   1.849  11.065 -1.0386 -0.0732  1.9746
25494SOL    HW277924   0.426   1.995  11.035  1.5791 -0.9221 -0.0261
25495SOL     OW77925   0.224   2.195   2.892 -0.1541 -0.3892 -0.0188
25495SOL    HW177926   0.217   2.224   2.801  0.3371 -0.4328 -0.0771
25495SOL    HW277927   0.307   2.233   2.922 -0.9696  0.7595  0.8375
25496SOL     OW77928   2.899   7.897   4.085 -0.3359 -0.2323  0.0282
25496SOL    HW177929   2.836   7.860   4.146 -0.9827 -0.9070 -1.0267
25496SOL    HW277930   2.897   7.991   4.103 -2.3522 -0.1123 -0.6007
25497SOL     OW77931   2.548   1.150   5.786  0.4640  0.0780  0.1944
25497SOL    HW177932   2.582   1.185   5.869  0.1320 -1.0143  0.8218
25497SOL    HW277933   2.503   1.069   5.812 -1.8902  1.0327 -0.7151
25498SOL     OW77934   6.180   5.102  12.154 -0.0280 -0.1738  0.0832
25498SOL    HW177935   6.249   5.043  12.123  1.2363  1.3291 -0.1468
25498SOL    HW277936   6.131   5.126  12.075 -0.1795 -0.4621  0.0883
25499SOL     OW77937   0.824   1.678   0.806  0.0999 -0.4511  0.3261
25499SOL    HW177938   0.740   1.634   0.816  1.1376 -2.4513  0.9706
25499SOL    HW277939   0.886   1.621   0.852  1.6163  1.6076  0.9824
25500SOL     OW77940   1.085   7.675   1.848 -0.1103 -0.5272  0.4572
25500SOL    HW177941   1.024   7.680   1.921  0.5509 -1.6331  1.1142
25500SOL    HW277942   1.156   7.735   1.873 -0.1418 -0.4906  0.4594
25501SOL     OW77943   7.367   2.954  10.803 -0.1327 -0.0631 -0.0458
25501SOL    HW177944   7.284   2.954  10.852 -0.4299  1.2277 -0.5106
25501SOL    HW277945   7.352   3.015  10.731  1.2572  0.2489 -0.0886
25502SOL     OW77946   6.028   1.031   3.382 -0.1676  0.1117  0.2020
25502SOL    HW177947   5.984   0.997   3.304  1.5408 -0.9380 -0.3730
25502SOL    HW277948   6.119   1.044   3.354  0.0892  1.4321  1.5437
25503SOL     OW77949   7.340   2.810   0.391  0.0567 -0.1722 -0.1514
25503SOL    HW177950   7.390   2.802   0.473 -2.2329  1.2813  1.5031
25503SOL    HW277951   7.366   2.895   0.356  1.4740 -1.0440 -1.3229
25504SOL     OW77952   4.630   6.129   0.076 -0.1318  0.0939 -0.1212
25504SOL    HW177953   4.682   6.054   0.048  0.0962 -0.1596  0.9046
25504SOL    HW277954   4.664   6.203   0.026  2.3020  0.2438  1.5840
25505SOL     OW77955   2.138   4.384   5.267  0.4875  0.0986 -0.0092
25505SOL    HW177956   2.109   4.325   5.336  1.3536 -0.2519  0.0593
25505SOL    HW277957   2.071   4.375   5.199  0.3015 -0.5034  0.2495
25506SOL     OW77958   5.746   7.526   1.999 -0.3932 -0.1326 -0.1899
25506SOL    HW177959   5.729   7.452   2.057 -0.5645 -1.6453 -2.0500
25506SOL    HW277960   5.678   7.590   2.020  0.5999  0.1942  2.4437
25507SOL     OW77961   4.534   7.337   8.338  0.1615  0.4116 -0.1721
25507SOL    HW177962   4.593   7.270   8.304 -0.7498 -0.8313  0.6041
25507SOL    HW277963   4.487   7.370   8.261 -0.1518 -0.6393 -0.4486
25508SOL     OW77964   5.622   1.710   0.962  0.5982  0.3437 -0.2118
25508SOL    HW177965   5.547   1.653   0.982  0.4996 -0.0060 -1.4713
25508SOL    HW277966   5.698   1.658   0.987  0.5971 -1.0950 -2.8039
25509SOL     OW77967   2.872   1.220  10.256  0.4069  0.2653  0.0075
25509SOL    HW177968   2.963   1.202  10.233  0.4707  0.1320  0.3629
25509SOL    HW277969   2.855   1.167  10.334 -0.2688 -0.4727 -0.6265
25510SOL     OW77970   3.003   0.322   7.617 -0.7240 -0.3692  0.5020
25510SOL    HW177971   2.960   0.262   7.679  0.0712 -2.1605 -0.5912
25510SOL    HW277972   2.950   0.314   7.537 -0.8492  0.7435  0.4624
25511SOL     OW77973   2.841   6.909  12.131  0.2653 -0.5368  0.0831
25511SOL    HW177974   2.874   6.920  12.041  1.0326  0.6962  0.4846
25511SOL    HW277975   2.920   6.916  12.185 -0.2782 -0.6524  0.8942
25512SOL     OW77976   0.781   6.495   7.729 -0.0340 -0.5593 -0.4536
25512SOL    HW177977   0.840   6.498   7.653  0.8679 -0.7305  0.2221
25512SOL    HW277978   0.820   6.555   7.792 -0.9867 -0.1265 -0.2661
25513SOL     OW77979   0.098   5.717   7.786 -0.7145  0.1918 -0.2473
25513SOL    HW177980   0.127   5.780   7.852  0.1956 -0.0551 -0.3916
25513SOL    HW277981   0.092   5.634   7.833  0.3412 -0.0685 -0.5511
25514SOL     OW77982   6.494   7.688   3.195  0.0372  0.2247 -0.0822
25514SOL    HW177983   6.495   7.763   3.254 -0.9210 -0.5553  0.9722
25514SOL    HW277984   6.586   7.665   3.183  0.2501  0.4688  1.0166
25515SOL     OW77985   0.140   5.948   5.241 -0.3677  1.1357 -0.0213
25515SOL    HW177986   0.211   5.895   5.278 -0.5625  0.6335 -0.3559
25515SOL    HW277987   0.170   5.969   5.152 -0.2685  1.6398  0.1264
25516SOL     OW77988   7.276   2.542   5.940  0.1312 -0.4175 -0.0637
25516SOL    HW177989   7.245   2.452   5.936 -0.9601 -0.1691  1.3940
25516SOL    HW277990   7.230   2.579   6.016 -0.4489  1.7278 -1.3520
25517SOL     OW77991   6.563   4.654   3.559  0.3913 -0.0981 -0.1052
25517SOL    HW177992   6.499   4.702   3.611 -1.5273 -1.3800 -1.1726
25517SOL    HW277993   6.615   4.605   3.624 -0.1535  0.4250  0.7410
25518SOL     OW77994   6.487   5.856   4.564 -0.4424  0.3406 -0.2772
25518SOL    HW177995   6.523   5.827   4.648  0.4150 -0.7172 -0.9819
25518SOL    HW277996   6.504   5.950   4.561 -2.0817  0.7534  1.4912
25519SOL     OW77997   0.915   6.660   8.412 -0.1865  0.3251  0.0735
25519SOL    HW177998   0.839   6.646   8.355  0.0634  2.6720 -0.9108
25519SOL    HW277999   0.983   6.603   8.377 -0.6787  0.2012 -0.6911
25520SOL     OW78000   6.691   6.077  11.559 -0.0172  0.2449 -0.3301
25520SOL    HW178001   6.726   6.131  11.488  0.3185  0.2031 -0.2021
25520SOL    HW278002   6.660   5.997  11.516  0.1008  0.2584 -0.4410
25521SOL     OW78003   6.966   3.420   6.825 -0.2798 -0.2524 -0.4758
25521SOL    HW178004   6.883   3.466   6.812 -0.0650  0.7726  1.4268
25521SOL    HW278005   7.031   3.491   6.833 -0.0185 -0.7318  3.1284
25522SOL     OW78006   0.415   0.456   2.850  0.0130 -0.2752  0.5581
25522SOL    HW178007   0.379   0.481   2.765 -0.4420 -0.4429  0.7005
25522SOL    HW278008   0.339   0.426   2.901  0.2064  0.2726  1.1855
25523NA      NA78009   2.710   6.040   8.313 -0.1909  0.1603 -0.0218
25524NA      NA78010   2.903   2.343   9.938  0.1473  0.0252  0.4632
25525NA      NA78011   3.444   4.259   6.605  0.2590  0.3116 -0.5110
25526NA      NA78012   2.131   3.317   6.294 -0.1387  0.0345 -0.0095
25527NA      NA78013   1.341   3.703   4.468 -0.5848 -0.4984 -0.2097
25528NA      NA78014   1.468   6.172   7.431 -0.1511 -0.3448  0.2770
25529NA      NA78015   7.046   1.321   7.832  0.0859  0.5789  0.7408
25530NA      NA78016   0.810   1.046   1.369 -0.5465 -0.3219 -0.3440
25531NA      NA78017   2.012   1.387   4.311 -0.3174 -0.1260 -0.3635
25532NA      NA78018   0.377   5.059   6.236 -0.0702 -0.5273  0.6621
25533NA      NA78019   0.655   4.686  10.184  0.1026  0.0658  0.4282
25534NA      NA78020   0.663   6.644   1.943  0.2948 -0.5426 -0.1334
25535NA      NA78021   4.558   4.252   4.337  0.0865 -0.5347  0.0811
25536NA      NA78022   6.561   6.523   0.029 -0.3446 -0.1487  0.2523
25537NA      NA78023   4.014   5.147   7.515 -0.0675  0.1390 -0.2014
25538NA      NA78024   3.393   4.053   3.614  0.2838 -0.0647  0.1278
25539NA      NA78025   2.246   6.005   4.336  0.5033 -0.2710 -0.2042
25540NA      NA78026   1.542   4.437  11.828 -1.0117  0.1148 -0.0717
25541NA      NA78027   0.211   4.820   1.117  0.4507  0.1051  0.5254
25542NA      NA78028   6.129   3.079   0.675  0.4634 -0.2991  0.0005
25543NA      NA78029   0.099   6.412   1.397  0.3612 -0.1965  0.6351
25544NA      NA78030   2.849   7.106   3.849  0.0520 -0.0141 -0.2502
25545NA      NA78031   0.057   7.083   4.094 -0.1611  0.0548 -0.2463
25546NA      NA78032   2.358   5.995   8.773 -0.4929  0.3687  0.0657
25547NA      NA78033   2.722   2.438   7.042 -0.1278 -0.0317 -0.0267
25548NA      NA78034   2.589   0.910   3.070  0.0714  0.5014  0.0413
25549NA      NA78035   5.584   0.158  12.277  0.6757 -0.0001  0.2742
25550NA      NA78036   1.812   3.664   7.999 -0.0615 -0.5889  0.4537
25551NA      NA78037   3.707   6.961   8.299  0.0942  0.2038 -0.0173
25552NA      NA78038   5.705   4.473   6.573 -0.2360 -0.1390  0.0308
25553NA      NA78039   7.434   3.659   5.043 -0.0083  0.4529  0.0255
25554NA      NA78040   3.464   2.164   3.487  0.3346 -0.0182  0.3085
25555NA      NA78041   2.505   7.473   2.657 -0.2473 -0.5379 -0.0245
25556NA      NA78042   5.070   0.179   2.656  0.2517  0.2725 -0.3270
25557NA      NA78043   1.420   4.099   0.162  0.1444  0.2088  0.0004
25558NA      NA78044   4.759   7.202   0.012  0.1347  0.2382 -0.0615
25559NA      NA78045   4.046   3.804   8.593  0.7450  0.1945 -0.2679
25560NA      NA78046   6.113   7.384   3.011  1.0992  0.3178 -0.2242
25561NA      NA78047   2.116   6.983   7.400  0.6409 -0.2675 -0.0681
25562NA      NA78048   6.808   2.315   4.761  0.0956  0.5273 -0.1194
25563NA      NA78049   0.553   1.956   3.716  0.2587 -0.1727  0.2916
25564NA      NA78050   2.075   7.904   6.039  0.0286  0.3583  0.9101
25565NA      NA78051   1.881   0.315   8.896  0.0220 -0.4497  0.5868
25566NA      NA78052   6.088   3.075   2.872  0.4681 -0.1959  0.0972
25567NA      NA78053   0.307   4.974   2.810  0.3722  0.2169 -0.4508
25568NA      NA78054   4.539   3.414   7.619  0.3179 -0.3601 -0.5722
25569NA      NA78055   2.570   2.230   0.307  0.1972 -0.5678  0.2748
25570NA      NA78056   5.639   5.925   3.479 -0.0251  0.0806 -0.4664
25571NA      NA78057   4.075   4.768   0.797 -0.1627 -0.2812  0.3680
25572NA      NA78058   3.003   3.389   7.496 -0.2225  0.1322  0.0111
25573NA      NA78059   2.820   1.363   8.359  0.4544 -0.0525  0.2384
25574NA      NA78060   1.184   7.370   5.044  0.2309 -0.6293 -0.1122
25575NA      NA78061   6.149   5.264   3.247  0.0677 -0.2690 -0.4714
25576NA      NA78062   5.613   6.425   8.815 -0.1554 -0.2089 -0.1953
25577NA      NA78063   2.963   4.385   5.409 -0.0105  0.5565 -0.4524
25578NA      NA78064   5.225   5.314   4.435 -0.1649 -0.1085  0.5063
25579NA      NA78065   0.018   2.609  12.243  0.7861  0.3549  0.4311
25580NA      NA78066   2.690   2.881   9.947  0.0037  0.0486  0.2607
25581NA      NA78067   3.023   3.398   0.517 -0.2923  0.6831  0.2560
25582NA      NA78068   0.765   0.537  12.078  0.0025  0.1161  0.1497
25583NA      NA78069   0.664   3.785   3.063 -0.1148  0.7534 -0.4765
25584NA      NA78070   1.262   1.160  12.372 -0.3552 -0.2150 -0.3574
25585NA      NA78071   6.058   5.176   7.837  0.1878  0.5012 -0.0493
25586NA      NA78072   2.611   6.967  12.185  0.4097 -0.8639 -0.4704
25587NA      NA78073   2.008   3.050   3.486 -0.3504 -0.5965  0.1292
25588NA      NA78074   4.540   2.913   8.530 -0.0146  0.4525  0.0265
25589NA      NA78075   1.211   3.111   5.508 -0.2003 -0.5867 -0.0701
25590NA      NA78076   3.894   1.875   2.230  0.2842 -0.0286  0.1363
25591NA      NA78077   0.685   3.511   7.960 -0.2837 -0.5565  0.0658
25592NA      NA78078   3.380   1.416   7.076 -0.0550  0.3509 -0.6306
25593NA      NA78079   4.919   5.976   9.616  0.0651  0.1953  0.6246
25594NA      NA78080   5.756   5.893  10.742  0.4702  0.0803  0.4503
25595NA      NA78081   6.455   3.280  10.683  0.2291 -0.0953 -0.0441
25596NA      NA78082   1.296   1.984   7.895 -0.2070  0.1387  0.5046
25597NA      NA78083   3.721   2.632   4.727 -0.1627  0.1754 -0.0566
25598NA      NA78084   6.395   6.667   9.871 -0.4872 -0.4307  0.0036
25599NA      NA78085   4.971   2.654   5.091 -0.0449  0.1684  0.4480
25600NA      NA78086   5.956   5.420  11.565  0.5075  0.2411 -0.0234
25601NA      NA78087   0.314   1.792   7.698  0.0966 -0.3074  0.6034
25602NA      NA78088   4.707   3.855   0.946 -0.0544 -0.2388  0.4491
25603NA      NA78089   4.590   1.306   1.110 -0.1458 -0.1957  0.0501
25604NA      NA78090   1.983   0.283   7.982  0.2430  0.4208 -0.0262
25605NA      NA78091   5.449   1.301   7.957 -0.2764 -0.2667 -0.0212
25606NA      NA78092   1.149   2.242   6.754 -0.0657 -0.3264 -0.0581
25607NA      NA78093   6.160   1.540  11.364 -0.4503  0.0067 -0.3937
25608NA      NA78094   5.014   6.457  11.573  0.1755  0.1523 -0.1559
25609NA      NA78095   7.082   3.896   8.035  0.1322 -0.0477  0.4889
25610NA      NA78096   6.421   4.543   3.418  0.1900  0.1766  0.1921
25611NA      NA78097   0.175   4.959   4.245 -0.0114 -0.1626 -0.2549
25612NA      NA78098   2.992   1.414   7.514  0.0564 -0.1168 -0.2005
25613NA      NA78099   3.032   7.024  10.301 -0.3384 -0.1591 -0.4512
25614NA      NA78100   3.554   5.347   1.206  0.3210  0.3934 -0.0957
25615NA      NA78101   2.981   3.743   5.191  0.1276  0.0323 -0.2550
25616NA      NA78102   7.155   6.364   4.346 -0.1063 -0.0133 -0.3111
25617NA      NA78103   5.899   1.658   8.335 -0.4664 -0.0956  0.0264
25618NA      NA78104   0.334   2.797   6.451  0.1742 -0.1569  0.2343
25619NA      NA78105   3.602   2.664   8.876 -0.1035 -0.1273 -0.4305
25620NA      NA78106   6.240   7.642   0.454  0.2297 -0.7902 -0.0054
25621NA      NA78107   4.350   2.338   7.324 -0.5700 -0.0151 -0.5002
25622NA      NA78108   4.975   3.539  10.335 -0.2639  0.7993 -0.1625
25623NA      NA78109   1.910   3.183   0.534  0.1926  0.4700 -0.1694
25624NA      NA78110   0.155   3.329  11.796  0.1429  0.3355 -0.2686
25625NA      NA78111   3.905   2.918   7.084 -0.2398 -0.4327  0.2259
25626NA      NA78112   2.827   1.142   8.992 -0.0466  0.0780  0.5952
25627NA      NA78113   5.080   2.333  10.994 -0.4825 -0.4538  0.5990
25628NA      NA78114   2.534   2.170   6.216 -0.3169 -0.0575  0.0808
25629NA      NA78115   1.044   6.801   7.880  0.4681 -0.2919 -0.0497
25630NA      NA78116   6.339   0.853   9.339 -0.0548  0.7140 -0.5075
25631NA      NA78117   5.577   3.791   3.708  0.0424  0.2323 -0.1247
25632NA      NA78118   1.394   2.532  11.903  0.0325  0.6282  0.2429
25633NA      NA78119   0.072   2.807  10.420  0.2872  0.4173  0.1432
25634NA      NA78120   0.735   3.756   1.505 -0.2474 -0.1513 -1.1272
25635NA      NA78121   2.966   7.641   3.882 -0.0113  0.2699 -0.1784
25636NA      NA78122   2.430   7.691   5.458 -0.1018  0.1013  0.1753
25637NA      NA78123   0.099   4.041   1.829 -0.4562  0.1318  0.0314
25638NA      NA78124   5.411   7.195  12.079 -0.0240 -0.5274 -0.2232
25639NA      NA78125   3.186   0.746   1.482  0.1620  0.1990 -0.1593
25640NA      NA78126   2.819   0.317  10.151  0.1112  0.2885 -0.1877
25641NA      NA78127   4.078   4.767   1.795 -0.2047 -0.7122 -0.2062
25642NA      NA78128   1.942   3.942   6.139 -0.2286  0.8417  0.0533
25643NA      NA78129   0.595   6.858   7.348 -0.2548 -0.0645  0.3347
25644NA      NA78130   0.077   2.179   8.790  0.1432  0.4969  0.3765
25645NA      NA78131   1.210   2.755  10.162 -0.1059  0.0155  0.3366
25646NA      NA78132   7.842   3.944   7.086 -0.1795 -0.6093  0.6252
25647NA      NA78133   1.335   6.083   4.393  0.5004  0.3817 -0.1461
25648NA      NA78134   5.661   3.419   7.570  0.0447  0.0354 -0.1379
25649NA      NA78135   2.330   4.672   5.800  0.6607 -0.1759  0.2435
25650NA      NA78136   5.384   7.125   2.819 -0.2583 -0.1065  0.0001
25651NA      NA78137   6.659   3.415   9.724  0.6388  0.4483 -0.7615
25652NA      NA78138   5.133   4.739  12.041 -0.0220 -0.6581 -0.4207
25653NA      NA78139   2.146   0.621   0.561  0.4237  0.5643 -0.7922
25654NA      NA78140   0.097   2.434   0.395  0.1686 -0.0073 -0.0499
25655NA      NA78141   7.217   2.597   0.768  0.1261 -0.2398 -0.3978
25656NA      NA78142   0.594   7.651  10.096 -0.1791  0.2849  0.0013
25657NA      NA78143   1.714   2.623   3.964 -0.0127 -0.4351 -0.1767
25658NA      NA78144   1.582   7.948   3.153  0.0767  0.0635 -0.5111
25659NA      NA78145   2.544   6.180   3.198  0.1576  0.0960  0.0740
25660NA      NA78146   7.432   3.407   2.551 -0.5419  0.0827 -0.0716
25661NA      NA78147   2.628   2.949   4.173 -0.0454 -0.6462 -0.0298
25662NA      NA78148   1.795   4.431   8.580  0.0215  0.0728 -0.2853
25663NA      NA78149   1.968   4.723   9.465 -0.1244 -0.0909 -0.3157
25664NA      NA78150   7.140   2.651  11.584 -0.1395 -0.2145 -0.4626
25665NA      NA78151   5.401   7.198  10.029  0.1461  0.3572  0.2331
25666NA      NA78152   5.569   7.847   8.830  0.6050  0.3601 -0.2587
25667NA      NA78153   2.199   1.376   5.632  0.1816  0.3807 -0.0293
25668NA      NA78154   1.940   3.340  12.087  0.3577 -0.2112  0.4461
25669NA      NA78155   6.684   2.553   1.419 -0.2783 -0.2126  0.3423
25670NA      NA78156   7.769   4.157   0.117 -0.1830 -0.7172  0.0796
25671NA      NA78157   7.004   1.828   1.915 -0.2226  0.0094  0.0409
25672NA      NA78158   1.697   3.153   4.594 -0.2522 -0.2376  0.2449
25673NA      NA78159   4.366   3.898   8.566 -0.0737  0.1094 -0.0186
25674NA      NA78160   3.986   4.268   7.021 -0.3505 -0.1592 -0.5262
25675NA      NA78161   5.439   6.141   2.919  0.1417 -0.0987 -0.0751
25676NA      NA78162   7.784   4.532  11.457  0.4156 -0.0173  0.3204
25677NA      NA78163   2.368   5.201   8.410 -0.3283  0.1761 -0.7589
25678NA      NA78164   1.438   0.690  10.840 -0.3447 -0.1933  0.1314
25679NA      NA78165   3.489   7.529   3.002  0.8707 -0.1011  0.4360
25680NA      NA78166   2.013   7.557   9.968 -0.5253 -0.3745  0.1441
25681NA      NA78167   7.370   4.978   2.007  0.1533 -0.0619  0.4680
25682NA      NA78168   3.948   1.029   4.018  0.5449  0.2605 -0.0538
25683NA      NA78169   2.791   3.543   3.215 -0.1548  0.1174  0.2397
25684NA      NA78170   5.560   3.425  10.611 -0.2499  0.0735 -0.1354
25685NA      NA78171   3.017   6.224   1.974  0.1289  0.1101  0.2955
25686NA      NA78172   7.338   1.870  10.871 -0.1801 -0.2617  0.2298
25687NA      NA78173   2.208   1.847   5.231 -0.0978  0.2021  0.0232
25688NA      NA78174   3.371   2.802   4.151 -0.3892 -0.2881  0.3137
25689NA      NA78175   6.174   2.141   3.880 -0.4155  0.1019  0.1042
25690NA      NA78176   6.194   2.557   2.592 -0.1692 -0.1633 -0.2460
25691NA      NA78177   5.812   5.611   6.457 -0.0940  0.3392  0.2939
25692NA      NA78178   1.969   4.670   6.649 -0.1658 -0.1946 -0.0543
25693NA      NA78179   4.155   1.880   6.117  0.4894 -0.2830 -0.3696
25694NA      NA78180   1.673   3.070   5.708  0.0123 -0.3503  0.1912
25695NA      NA78181   5.631   5.549   5.867  0.4263  0.0896 -0.1339
25696NA      NA78182   1.039   7.155   2.514  0.2753  0.6597 -0.4567
25697NA      NA78183   4.060   4.565   4.505  0.0318 -0.1364  0.2781
25698NA      NA78184   0.087   4.099  11.583 -0.2564 -0.2241 -0.3224
25699NA      NA78185   7.457   5.098   3.295  0.1277  0.2107  0.1545
25700NA      NA78186   2.622   2.428   2.041  0.3248 -0.3848 -0.0231
25701NA      NA78187   3.013   2.965   7.179  0.4067  0.1651  0.2831
25702NA      NA78188   0.001   5.821   6.547  0.5890 -0.3455 -0.2914
25703NA      NA78189   5.485   3.233  11.482  0.0980 -0.0852 -0.1316
25704NA      NA78190   4.588   7.694  11.727 -0.2871 -0.3650  0.3298
25705NA      NA78191   0.023   0.179   3.179 -0.0242  0.3131  0.0090
25706NA      NA78192   5.923   6.033  11.664 -0.2495  0.3547 -0.3105
25707NA      NA78193   6.801   4.461   2.137  0.3144  0.0384 -0.4973
25708NA      NA78194   4.532   3.930  12.052 -0.1264 -0.1222 -0.5301
25709NA      NA78195   2.497   0.101   8.088  0.2695  0.1362 -0.0297
25710NA      NA78196   4.859   7.171   1.365 -0.4439 -0.4599 -0.4881
25711NA      NA78197   2.814   5.239   3.863 -0.1867  0.1298  0.5732
25712NA      NA78198   5.039   2.846   8.801  0.9377  0.0586 -0.0979
25713NA      NA78199   3.626   0.890   2.675  0.4997  0.0180  0.1232
25714NA      NA78200   0.152   1.847   5.142 -0.1794  0.1183 -0.2886
25715NA      NA78201   2.247   3.403  10.447 -0.5546 -0.0585 -0.0798
25716NA      NA78202   0.746   1.521  11.266 -0.5235 -0.4152 -0.2311
25717NA      NA78203   0.493   7.176  10.780 -0.1199  0.0719 -0.0104
25718NA      NA78204   0.492   3.500   0.069 -0.5056 -0.1200 -0.2986
25719NA      NA78205   4.379   3.447  11.062 -0.1822  0.2184  0.1847
25720NA      NA78206   1.310   1.392   6.751  0.4863 -0.1583  0.1705
25721NA      NA78207   3.930   3.133   4.025  0.1133 -0.0253 -0.1011
25722NA      NA78208   5.158   0.650   3.582 -0.1032 -0.1280  0.5184
25723NA      NA78209   5.379   0.656  11.942 -0.2194 -0.1375  0.0117
25724NA      NA78210   2.674   5.805   0.878 -0.0324  0.4356 -0.2433
25725NA      NA78211   7.029   3.802   0.186 -0.2846 -0.2862  0.1993
25726NA      NA78212   7.184   5.733   9.927 -0.2213 -0.1066 -0.2252
25727NA      NA78213   7.047   0.361   5.525 -0.0921 -0.1676  0.3370
25728NA      NA78214   5.197   4.947   1.444  0.0113 -0.1253  0.8998
25729NA      NA78215   6.073   0.533   5.232  0.4006 -0.2725  0.0579
25730NA      NA78216   0.101   1.268   0.527  0.3690 -0.4100  0.1798
25731NA      NA78217   2.056   7.085   9.013 -0.6628  0.1272  0.2230
25732NA      NA78218   3.711   6.417  11.941 -0.5552  0.7759 -0.2287
25733NA      NA78219   7.098   0.447  10.789  0.2177 -0.3754  0.0125
25734NA      NA78220   2.709   3.726   1.539 -0.3074 -0.0577 -0.0976
25735NA      NA78221   0.887   7.691   4.633  0.5687 -0.6474  0.1171
25736NA      NA78222   3.279   4.817   4.687  0.3446  0.3377  0.1617
25737NA      NA78223   5.992   1.889   6.999 -0.2248  0.3097 -0.4297
25738NA      NA78224   4.256   6.096   0.619 -0.5932  0.2429 -0.0841
25739NA      NA78225   0.345   1.557   8.903 -0.4009  0.0172 -0.2156
25740NA      NA78226   7.736   0.230   5.478  0.2074 -0.1100 -0.3334
25741NA      NA78227   4.081   1.855   5.728 -0.1132 -0.1164 -0.0842
25742NA      NA78228   7.636   6.630   9.752 -0.0622 -0.1105  0.5038
25743NA      NA78229   3.068   4.055  10.897  0.2391  0.3137  0.1087
25744NA      NA78230   5.908   4.921  11.163 -0.8275  0.0539 -0.2397
25745NA      NA78231   2.737   4.588   6.821  0.4308  0.0738 -0.2121
25746NA      NA78232   6.109   0.657   7.366 -0.2512  0.2918 -0.0530
25747NA      NA78233   6.824   1.051   1.486 -0.0264  0.1388  0.2398
25748NA      NA78234   7.599   2.886   4.401 -0.1341  0.3012  0.3429
25749NA      NA78235   4.571   7.390   9.900 -0.4079 -0.1989  0.1666
25750NA      NA78236   6.964   5.633   3.053  0.5837  0.1635 -0.6391
25751NA      NA78237   1.654   3.575   8.697 -0.3303 -0.1169 -0.2791
25752NA      NA78238   1.700   3.986   5.214  0.1630 -0.5847  0.2922
25753NA      NA78239   1.598   2.528   1.624  0.2474  0.1294  0.3111
25754NA      NA78240   0.388   7.063   3.591  0.5146  0.3337 -0.0629
25755NA      NA78241   6.148   5.037   0.756  0.1932  0.2609  0.3477
25756NA      NA78242   4.462   3.139   6.703 -0.3897 -0.5172  0.0226
25757NA      NA78243   0.150   0.088   6.654 -0.2417 -0.2083 -0.3696
25758NA      NA78244   4.008   4.972   9.008 -0.1418 -0.4432  0.1083
25759NA      NA78245   0.664   7.433   9.280  0.0089  0.0042 -0.2095
25760NA      NA78246   2.512   5.436   2.033  0.1367 -0.2922 -0.2230
25761NA      NA78247   0.520   7.710   0.415  0.3860  0.2965  0.0808
25762NA      NA78248   5.106   3.990  12.149  0.1127 -0.5983 -0.8029
25763NA      NA78249   2.521   4.617   2.846 -0.5119  0.5959  0.0047
25764NA      NA78250   2.078   1.484   1.853 -0.0257 -0.0937  0.5020
25765NA      NA78251   3.184   3.673   8.930 -0.0424  0.3075 -0.2867
25766NA      NA78252   5.091   4.572  11.633  0.1588  0.4578 -0.1153
25767NA      NA78253   3.922   1.068   0.149 -0.4400 -0.3347 -0.2692
25768NA      NA78254   3.470   6.129   8.935 -0.0269 -0.0679  0.1836
25769NA      NA78255   4.495   0.769   4.450  0.1356 -0.1927  0.2306
25770NA      NA78256   2.979   4.947   7.730  0.2461  0.1906  0.0906
25771NA      NA78257   4.685   4.355   3.607  0.1267  0.4811 -0.2761
25772NA      NA78258   6.165   1.821   0.332 -0.3964  0.4250 -0.0385
25773NA      NA78259   7.365   7.863   2.102  0.2524 -0.3260  0.3171
25774NA      NA78260   1.901   4.675   1.515  0.4283 -0.1911 -0.1148
25775NA      NA78261   1.823   4.501   4.444  0.2291  0.0420  0.1683
25776NA      NA78262   5.614   1.925   1.088  0.4239 -0.2296  0.0755
25777NA      NA78263   6.323   4.236  11.400 -0.4057 -0.1975 -0.0981
25778NA      NA78264   3.074   6.447   7.532  0.2062  0.0383 -0.8871
25779NA      NA78265   3.987   7.941  10.721  0.1324 -0.0952 -0.4991
25780NA      NA78266   4.868   1.438   7.679  0.0449 -0.0672  0.3024
25781NA      NA78267   3.081   5.161   8.781 -0.2828 -0.1080 -0.1654
25782NA      NA78268   1.360   2.570   2.374 -0.1118 -0.2020  0.0357
25783NA      NA78269   6.662   5.211   7.968 -0.1524 -0.0638 -0.1351
25784NA      NA78270   4.561   2.839   4.667 -0.6836  0.0201 -0.5427
25785NA      NA78271   7.336   1.061   7.442  0.3464  0.1307 -0.1723
25786NA      NA78272   6.385   4.954   2.678 -0.4585  0.2652  0.0932
25787NA      NA78273   5.087   1.803   6.808 -0.5418  0.4657  0.0783
25788CL      CL78274   4.975   4.079  11.614 -0.3555  0.2341  0.3335
25789CL      CL78275   5.388   6.562   9.806 -0.2191  0.8179  0.2647
25790CL      CL78276   7.455   3.732   0.093  0.2438 -0.2583 -0.3340
25791CL      CL78277   0.369   1.838  12.428  0.0483  0.9112 -0.5820
25792CL      CL78278   2.623   7.517   8.805 -0.2127 -0.0919 -0.0958
25793CL      CL78279   4.557   1.670  12.134  0.3208  0.0220  0.5913
25794CL      CL78280   2.576   1.934   5.543  0.3231  0.0307  0.0255
25795CL      CL78281   3.080   5.714   8.335 -0.1895  0.2561 -0.0831
25796CL      CL78282   1.582   1.206   5.870 -0.2540  0.7187 -0.3229
25797CL      CL78283   1.432   2.152   1.945  0.1555 -0.1621 -0.3083
25798CL      CL78284   5.617   4.897   3.264  0.4132 -0.0829 -0.2277
25799CL      CL78285   0.220   0.451   5.646 -0.3061 -0.5232 -0.1861
25800CL      CL78286   7.317   0.800   0.944  0.2388 -0.1798 -0.5072
25801CL      CL78287   5.205   6.337   7.214 -0.1450 -0.3743  0.2873
25802CL      CL78288   2.857   1.470   1.250  0.0070 -0.2104 -0.1429
25803CL      CL78289   0.900   4.559   0.425  0.2482 -0.1504 -0.0187
25804CL      CL78290   4.916   2.438   1.264 -0.0891 -0.1936 -0.2279
25805CL      CL78291   1.030   3.188   2.545  0.4858  0.0639  0.4433
25806CL      CL78292   7.610   3.993  12.163 -0.3433  0.1445 -0.2765
25807CL      CL78293   1.454   2.136  11.554  0.0574 -0.4185  0.0821
25808CL      CL78294   0.632   4.667   9.572  0.0931  0.2185  0.1424
25809CL      CL78295   4.540   1.493   5.313 -0.1216 -0.2723 -0.2558
25810CL      CL78296   6.642   3.615  10.464 -0.1922 -0.0732 -0.3686
25811CL      CL78297   6.114   5.159   8.931 -0.2799 -0.0583  0.0727
25812CL      CL78298   3.973   6.735   6.299  0.1324 -0.2569  0.3047
25813CL      CL78299   4.758   6.736  11.902  0.6453  0.2206 -0.2448
25814CL      CL78300   2.742   1.411   2.959  0.0588 -0.0647 -0.0770
25815CL      CL78301   4.517   0.838   0.400  0.0180 -0.0035 -0.2975
25816CL      CL78302   4.638   2.788   4.422  0.4699  0.1311  0.3265
25817CL      CL78303   6.497   4.655   4.486  0.2963 -0.0629  0.0611
25818CL      CL78304   5.969   7.719   4.478 -0.1388 -0.2732  0.3205
25819CL      CL78305   1.869   7.414   5.473 -0.4961  0.1274 -0.4641
25820CL      CL78306   6.572   5.148   1.818  0.2794 -0.1328 -0.1553
25821CL      CL78307   4.953   7.691   9.204 -0.1160 -0.5669  0.0671
25822CL      CL78308   4.725   1.892   6.504  0.1188 -0.0602 -0.0329
25823CL      CL78309   0.884   7.427   3.871  0.1865  0.4534 -0.1662
25824CL      CL78310   4.439   4.458  12.355 -0.1033 -0.2879  0.0174
25825CL      CL78311   4.224   5.000   9.159 -0.1954  0.0966  0.1383
25826CL      CL78312   7.551   4.033  11.450 -0.1011  0.1585 -0.2978
25827CL      CL78313   2.562   6.941   2.594  0.2931 -0.2502  0.1562
25828CL      CL78314   0.371   4.699  11.742  0.2623 -0.5147  0.1002
25829CL      CL78315   1.351   1.311  11.475 -0.2358  0.0248  0.0490
25830CL      CL78316   5.774   1.458   9.451 -0.0083 -0.1612 -0.2131
25831CL      CL78317   0.574   5.480   5.331  0.4327 -0.0500 -0.0051
25832CL      CL78318   4.855   3.290  10.877  0.0816  0.0018  0.1792
25833CL      CL78319   1.382   3.785   1.042  0.0591  0.0784 -0.1553
25834CL      CL78320   6.007   6.478   3.084  0.3101  0.0677 -0.2923
25835CL      CL78321   4.531   4.213  11.699  0.0075 -0.2106  0.0513
25836CL      CL78322   6.028   2.472  11.059 -0.3928 -0.1461 -0.1986
25837CL      CL78323   2.341   7.714   0.824  0.2613 -0.3095 -0.3072
25838CL      CL78324   2.720   2.590   0.624  0.3326 -0.0056  0.1096
25839CL      CL78325   5.555   5.658  11.798 -0.1659  0.0205 -0.2612
25840CL      CL78326   5.552   4.341   3.720 -0.6673  0.1533 -0.1267
25841CL      CL78327   0.166   7.964   5.417  0.0221 -0.0142 -0.0418
25842CL      CL78328   0.944   5.494   2.972  0.2911 -0.3466 -0.1503
25843CL      CL78329   2.213   0.252   7.826 -0.4173 -0.0570 -0.0730
25844CL      CL78330   7.715   0.195   2.306 -0.6381  0.4912  0.0362
25845CL      CL78331   6.573   5.373   3.277 -0.2278  0.2655  0.1376
25846CL      CL78332   7.896   7.121   3.158  0.1593  0.0256  0.1179
25847CL      CL78333   5.866   3.845   7.509  0.1810 -0.1430 -0.0049
25848CL      CL78334   1.595   2.180   4.598 -0.0911  0.0890  0.2993
25849CL      CL78335   5.535   2.386   7.357  0.1133 -0.2719  0.3318
25850CL      CL78336   1.289   3.280  11.759 -0.0969 -0.1644  0.1466
25851CL      CL78337   6.791   0.183   7.226  0.1929 -0.1122  0.4056
25852CL      CL78338   1.433   4.319   5.013 -0.0050  0.0821  0.0558
25853CL      CL78339   6.848   3.245   5.755 -0.0118  0.0486  0.1210
25854CL      CL78340   6.170   2.612   4.350  0.1911 -0.4767  0.2905
25855CL      CL78341   2.616   2.666  10.593  0.0971  0.2666 -0.0076
25856CL      CL78342   3.735   4.873   5.835 -0.1342  0.0387 -0.0143
25857CL      CL78343   5.980   6.413   1.798 -0.0966 -0.0155  0.3865
25858CL      CL78344   2.902   6.395   8.563  0.2779  0.1670 -0.1054
25859CL      CL78345   1.032   5.715   0.741 -0.0747  0.0082 -0.0559
25860CL      CL78346   7.129   0.919  10.909  0.2083  0.1505 -0.2000
25861CL      CL78347   7.204   5.281   6.779 -0.0541  0.4556 -0.2581
25862CL      CL78348   1.214   3.373   0.550  0.4124 -0.5193  0.4052
25863CL      CL78349   0.730   3.216   6.747  0.0010  0.2848 -0.0941
25864CL      CL78350   2.624   6.979   0.463  0.1175  0.0414 -0.1855
25865CL      CL78351   5.510   0.414   4.603 -0.1801  0.3275 -0.3911
25866CL      CL78352   0.506   0.369   9.763  0.1256 -0.0524 -0.3241
25867CL      CL78353   1.613   5.537   3.533  0.1815 -0.0620 -0.6383
25868CL      CL78354   5.550   2.541  10.127 -0.0827  0.2451  0.5015
25869CL      CL78355   2.720   3.945  11.311 -0.2401 -0.1595 -0.3835
25870CL      CL78356   5.813   6.872   9.305 -0.1579 -0.1536  0.2458
25871CL      CL78357   1.162   2.002   3.966  0.0787 -0.1004  0.4414
25872CL      CL78358   7.201   3.152  10.352  0.2877  0.0845 -0.0713
25873CL      CL78359   7.544   4.026   1.356 -0.0583  0.1120 -0.0722
25874CL      CL78360   4.146   2.226   2.080 -0.4554 -0.1742  0.2967
25875CL      CL78361   5.594   1.533   7.020  0.1315 -0.0309 -0.0340
25876CL      CL78362   5.674   1.214   0.475 -0.2950 -0.5260 -0.1767
25877CL      CL78363   0.769   2.011   7.987  0.0355  0.4129  0.6898
25878CL      CL78364   0.403   6.949   0.162 -0.0921 -0.2714 -0.3766
25879CL      CL78365   0.730   5.802   7.016  0.4266 -0.1151  0.3293
25880CL      CL78366   4.642   3.339   1.066 -0.2218  0.2784 -0.1375
25881CL      CL78367   1.247   3.194   1.745 -0.6835 -0.0468  0.1630
25882CL      CL78368   4.459   1.087   4.106  0.1163  0.2721  0.2030
25883CL      CL78369   5.880   1.638   4.708 -0.1505  0.4355  0.2093
25884CL      CL78370   0.778   4.405  10.939  0.0517 -0.2946 -0.4233
25885CL      CL78371   1.630   5.065   7.027 -0.0824  0.1318  0.1271
25886CL      CL78372   2.559   2.564   1.541 -0.1148  0.0333  0.4340
25887CL      CL78373   6.422   6.146   1.811 -0.2610 -0.1088  0.0666
25888CL      CL78374   3.587   4.971   1.469  0.6827 -0.0557  0.0068
25889CL      CL78375   5.736   3.560   1.840  0.0888  0.3578  0.0010
25890CL      CL78376   0.939   1.714   6.012  0.3980  0.0509  0.2787
25891CL      CL78377   2.064   7.902   9.700  0.0064 -0.2546 -0.1725
25892CL      CL78378   6.280   0.495   1.349 -0.3298 -0.1284  0.2620
25893CL      CL78379   7.841   6.633   1.787  0.3351  0.6094  0.1006
25894CL      CL78380   2.140   0.565   2.793  0.0413 -0.3525 -0.3348
25895CL      CL78381   6.027   4.259   7.838 -0.1275  0.3579 -0.1167
25896CL      CL78382   3.987   5.196   8.859  0.0677 -0.3050 -0.0343
25897CL      CL78383   0.177   7.667   4.111 -0.0169  0.0172  0.3718
25898CL      CL78384   3.905   1.657   2.406  0.1582  0.3049  0.2691
25899CL      CL78385   2.579   4.958   9.114 -0.2119 -0.1496 -0.2623
25900CL      CL78386   6.378   5.797   7.651  0.1401 -0.5944 -0.0394
25901CL      CL78387   0.730   2.619   4.739 -0.1105 -0.0586 -0.5594
25902CL      CL78388   1.547   0.683   4.266 -0.2548  0.2367 -0.0262
25903CL      CL78389   1.411   5.157   4.207  0.1946  0.2311 -0.3760
25904CL      CL78390   0.822   1.213   0.488  0.0789 -0.0316 -0.1439
25905CL      CL78391   7.171   2.056   7.898 -0.1339 -0.5288 -0.2360
25906CL      CL78392   2.901   4.929   8.676 -0.1160 -0.0263 -0.6560
25907CL      CL78393   0.114   5.861   1.906  0.1871 -0.4002  0.0739
25908CL      CL78394   4.778   2.898   9.599 -0.4055 -0.1912  0.1814
25909CL      CL78395   0.986   4.215  10.148 -0.2848 -0.1616 -0.3017
25910CL      CL78396   1.689   7.086   5.148  0.1104  0.2002  0.1259
25911CL      CL78397   0.104   7.431   6.526  0.2071  0.2216  0.0176
25912CL      CL78398   1.878   3.576  12.209 -0.0840  0.3682  0.4341
25913CL      CL78399   7.080   6.164   9.777 -0.1875  0.2400  0.2749
25914CL      CL78400   0.794   1.995   5.095 -0.0606  0.4548  0.0053
25915CL      CL78401   4.573   5.004   0.827 -0.0746  0.1221  0.0903
25916CL      CL78402   7.444   2.084   1.965 -0.0071 -0.1892  0.3095
25917CL      CL78403   6.620   7.876  11.627 -0.3086  0.0702  0.2541
25918CL      CL78404   6.111   1.449   5.877 -0.2052  0.1959 -0.2180
25919CL      CL78405   5.445   0.064   8.507 -0.0745  0.1934 -0.0518
25920CL      CL78406   3.276   0.384   2.955  0.3193 -0.4879 -0.3093
25921CL      CL78407   7.348   4.095   7.115  0.5420  0.2285 -0.1574
25922CL      CL78408   7.440   5.609   2.800  0.3620  0.4681 -0.4100
25923CL      CL78409   7.706   2.654   8.932 -0.0822  0.0956  0.4348
25924CL      CL78410   6.735   1.397   0.875  0.1742 -0.0125 -0.1766
25925CL      CL78411   5.636   4.932   5.228  0.0131 -0.0228 -0.5661
25926CL      CL78412   2.263   4.394   1.673 -0.1537  0.1317 -0.3659
25927CL      CL78413   4.988   4.830   3.962 -0.1885  0.0363  0.0243
25928CL      CL78414   6.722   0.045   2.579  0.1323 -0.4612 -0.2153
25929CL      CL78415   7.373   2.913   1.486  0.3777  0.0392  0.2151
25930CL      CL78416   2.711   7.597   8.112  0.0949  0.3026  0.3993
25931CL      CL78417   2.223   1.729   8.269  0.3018  0.0826  0.0915
25932CL      CL78418   1.476   7.503   5.785 -0.2436 -0.4189  0.1961
25933CL      CL78419   1.134   7.363  10.629  0.1468 -0.2162 -0.2213
25934CL      CL78420   3.623   0.378  10.791 -0.0651  0.0797  0.0202
25935CL      CL78421   3.920   0.478   0.390 -0.1321 -0.2462 -0.1517
25936CL      CL78422   7.634   3.005   3.005 -0.0601  0.0336 -0.1065
25937CL      CL78423   3.375   5.781   4.031  0.0630  0.2734  0.0052
25938CL      CL78424   3.314   1.344   8.271  0.1547  0.2634  0.3654
25939CL      CL78425   4.091   0.805   8.273 -0.1546  0.0203 -0.2000
25940CL      CL78426   1.271   2.575   6.096  0.0801  0.0163  0.0308
25941CL      CL78427   7.621   1.057   0.328 -0.4345 -0.0364  0.1948
25942CL      CL78428   6.612   5.355   0.454  0.1650 -0.2180  0.3636
25943CL      CL78429   7.221   6.940   9.637 -0.1048 -0.0308 -0.1583
25944CL      CL78430   5.977   4.675   1.570  0.1659  0.1659  0.7641
25945CL      CL78431   3.394   7.718   2.526 -0.1215 -0.0705  0.2506
25946CL      CL78432   1.391   7.950   7.427  0.3778 -0.0792  0.1554
25947CL      CL78433   3.025   6.960  11.836 -0.2211 -0.3536 -0.2320
25948CL      CL78434   0.921   6.206   7.149 -0.1026  0.1737  0.2118
25949CL      CL78435   3.660   6.516   1.220 -0.0139 -0.0842  0.0653
25950CL      CL78436   1.842   6.184   4.268 -0.2190  0.4626 -0.0360
25951CL      CL78437   4.081   1.478  11.889 -0.7208 -0.3197  0.2949
25952CL      CL78438   3.657   4.806   0.295  0.3755 -0.0693  0.2547
25953CL      CL78439   0.492   4.260  10.282 -0.0519  0.3101 -0.2629
25954CL      CL78440   5.330   7.612   2.936  0.4218  0.1598  0.2064
25955CL      CL78441   2.864   1.561   4.150  0.1725  0.2885  0.0183
25956CL      CL78442   0.035   0.629   9.389  0.2252  0.0057 -0.2122
25957CL      CL78443   3.474   1.855   2.582 -0.4491  0.4377  0.2137
25958CL      CL78444   1.029   7.336   9.941 -0.1277 -0.1910  0.2533
25959CL      CL78445   4.882   7.448  12.086  0.0253  0.0023 -0.3142
25960CL      CL78446   6.715   3.904   3.150  0.0730 -0.0430  0.2625
25961CL      CL78447   0.351   0.427   7.751 -0.3487  0.0442  0.1159
25962CL      CL78448   0.332   1.184   3.041  0.0115 -0.3630 -0.1176
25963CL      CL78449   2.136   2.324   2.037  0.4760 -0.0355 -0.0555
25964CL      CL78450   1.975   5.158   4.459 -0.0622  0.2433  0.2677
25965CL      CL78451   0.705   6.482   8.230  0.3402 -0.0693  0.0964
25966CL      CL78452   0.135   3.753   0.256 -0.3126  0.0131  0.3841
25967CL      CL78453   7.335   6.155   4.303  0.0639 -0.1060 -0.4315
25968CL      CL78454   4.033   6.678   8.026 -0.1405  0.0559  0.0952
25969CL      CL78455   5.395   4.171  10.744  0.0651 -0.3189  0.2762
25970CL      CL78456   4.808   0.063   2.305 -0.0894 -0.1532  0.4456
25971CL      CL78457   7.536   1.620   7.929 -0.6173 -0.1789  0.4549
25972CL      CL78458   6.491   3.195   0.425  0.0977  0.0192 -0.1183
25973CL      CL78459   6.942   5.690   9.164  0.2326  0.5517  0.3268
25974CL      CL78460   4.211   0.394   3.080  0.2722 -0.1308 -0.1396
25975CL      CL78461   6.540   0.928   7.880  0.3342  0.3606  0.1295
25976CL      CL78462   1.526   1.595   8.270 -0.2022 -0.1189  0.4486
25977CL      CL78463   6.549   1.747   8.894  0.0833  0.1883 -0.1621
25978CL      CL78464   2.432   1.296   8.742  0.2663 -0.0317  0.1044
25979CL      CL78465   3.821   3.689   0.186 -0.1926  0.2674  0.0552
25980CL      CL78466   2.493   7.703   5.967 -0.1856 -0.2225 -0.6076
25981CL      CL78467   3.246   4.272  11.708  0.2476 -0.0752 -0.1720
25982CL      CL78468   2.695   1.562  11.434  0.0314 -0.3723 -0.0089
25983CL      CL78469   7.505   2.750  11.886 -0.3129 -0.0637  0.3278
25984CL      CL78470   0.432   4.233   2.019 -0.2901  0.6780  0.0211
25985CL      CL78471   0.041   1.440   1.030  0.2713  0.4367 -0.0258
25986CL      CL78472   5.436   1.352  11.560 -0.5720 -0.2299 -0.1276
25987CL      CL78473   0.719   1.023  11.499  0.0636  0.2429  0.0533
25988CL      CL78474   6.074   5.906  11.471 -0.2159  0.0955  0.6250
25989CL      CL78475   4.799   7.317   2.634  0.1458  0.6005 -0.0877
25990CL      CL78476   5.195   3.282   7.698  0.1151 -0.1537  0.4884
25991CL      CL78477   7.498   0.359   0.533 -0.1108 -0.3166  0.1087
25992CL      CL78478   5.576   1.504   1.474  0.1938 -0.2694 -0.1661
25993CL      CL78479   0.029   0.927   2.059  0.4197  0.0369  0.0064
25994CL      CL78480   6.034   4.965  11.584  0.6825 -0.5565 -0.3014
25995CL      CL78481   6.383   3.759   9.620 -0.1803  0.1978  0.1435
25996CL      CL78482   5.563   6.061   5.097  0.2747  0.1289 -0.1462
25997CL      CL78483   6.609   3.735  12.431 -0.1565 -0.0228  0.8382
25998CL      CL78484   3.240   7.068  10.120  0.2564  0.1143  0.1598
25999CL      CL78485   4.228   6.690   5.864 -0.1040  0.0543  0.1136
26000CL      CL78486   4.581   0.827  11.105  0.3571  0.0468  0.1055
26001CL      CL78487   1.337   1.865  12.258 -0.0962  0.2297  0.1770
26002CL      CL78488   3.295   6.626   4.292  0.1963 -0.1497  0.0178
26003CL      CL78489   5.879   4.707   3.958  0.1700  0.1317 -0.5942
26004CL      CL78490   5.633   7.918  11.313  0.1332  0.0213 -0.0786
   7.96410   7.96410  12.44390
